V -t * -v 1.0a5 -a 0
A -t * -n 1 -p 0 -o 0x7fffffff -c 30 -a 1
A -t * -h 1 -m 1073741823 -s 0
c -t * -i 1 -n Blue
c -t * -i 2 -n Red
c -t * -i 3 -n Green
n -t * -a 17 -s 17 -S UP -v circle -c black -i black
n -t * -a 0 -s 0 -S UP -v circle -c black -i black
n -t * -a 18 -s 18 -S UP -v circle -c black -i black
n -t * -a 1 -s 1 -S UP -v circle -c black -i black
n -t * -a 20 -s 20 -S UP -v circle -c black -i black
n -t * -a 19 -s 19 -S UP -v circle -c black -i black
n -t * -a 2 -s 2 -S UP -v circle -c black -i black
n -t * -a 3 -s 3 -S UP -v circle -c black -i black
n -t * -a 4 -s 4 -S UP -v circle -c black -i black
n -t * -a 5 -s 5 -S UP -v circle -c black -i black
n -t * -a 6 -s 6 -S UP -v circle -c black -i black
n -t * -a 7 -s 7 -S UP -v circle -c black -i black
n -t * -a 8 -s 8 -S UP -v circle -c black -i black
n -t * -a 9 -s 9 -S UP -v circle -c black -i black
n -t * -a 10 -s 10 -S UP -v circle -c black -i black
n -t * -a 11 -s 11 -S UP -v circle -c black -i black
n -t * -a 12 -s 12 -S UP -v circle -c black -i black
n -t * -a 13 -s 13 -S UP -v circle -c black -i black
n -t * -a 14 -s 14 -S UP -v circle -c black -i black
n -t * -a 15 -s 15 -S UP -v circle -c black -i black
n -t * -a 16 -s 16 -S UP -v circle -c black -i black
X -t * -n 21 -r 1Mb -D 30ms -o left
L -t * -s 21 -d 0 -o up
L -t * -s 21 -d 1 -o down
L -t * -s 21 -d 2 -o up
L -t * -s 21 -d 3 -o down
L -t * -s 21 -d 4 -o up
L -t * -s 21 -d 5 -o down
L -t * -s 21 -d 6 -o up
L -t * -s 21 -d 7 -o down
L -t * -s 21 -d 8 -o up
L -t * -s 21 -d 9 -o down
L -t * -s 21 -d 10 -o up
L -t * -s 21 -d 11 -o down
L -t * -s 21 -d 12 -o up
L -t * -s 21 -d 13 -o down
L -t * -s 21 -d 14 -o up
L -t * -s 21 -d 15 -o down
L -t * -s 21 -d 16 -o up
L -t * -s 21 -d 17 -o down
L -t * -s 21 -d 18 -o up
L -t * -s 21 -d 19 -o down
L -t * -s 21 -d 20 -o up
h -t 0.1 -s 1 -d 21 -p cbr -e 1000 -c 2 -i 0 -a 2 -x {1.0 0.0 0 ------- null}
h -t 0.1 -s 1 -d 21 -p cbr -e 24 -c 2 -i 1 -a 2 -x {1.0 0.0 1 ------- null}
h -t 0.1 -s 2 -d 21 -p cbr -e 1000 -c 3 -i 2 -a 3 -x {2.0 0.1 0 ------- null}
h -t 0.1 -s 2 -d 21 -p cbr -e 24 -c 3 -i 3 -a 3 -x {2.0 0.1 1 ------- null}
h -t 0.1 -s 3 -d 21 -p cbr -e 1000 -c 1 -i 4 -a 1 -x {3.0 0.2 0 ------- null}
h -t 0.1 -s 3 -d 21 -p cbr -e 24 -c 1 -i 5 -a 1 -x {3.0 0.2 1 ------- null}
h -t 0.1 -s 4 -d 21 -p cbr -e 1000 -c 2 -i 6 -a 2 -x {4.0 0.3 0 ------- null}
h -t 0.1 -s 4 -d 21 -p cbr -e 24 -c 2 -i 7 -a 2 -x {4.0 0.3 1 ------- null}
h -t 0.1 -s 5 -d 21 -p cbr -e 1000 -c 3 -i 8 -a 3 -x {5.0 0.4 0 ------- null}
h -t 0.1 -s 5 -d 21 -p cbr -e 24 -c 3 -i 9 -a 3 -x {5.0 0.4 1 ------- null}
h -t 0.1 -s 6 -d 21 -p cbr -e 1000 -c 1 -i 10 -a 1 -x {6.0 0.5 0 ------- null}
h -t 0.1 -s 6 -d 21 -p cbr -e 24 -c 1 -i 11 -a 1 -x {6.0 0.5 1 ------- null}
h -t 0.1 -s 7 -d 21 -p cbr -e 1000 -c 2 -i 12 -a 2 -x {7.0 0.6 0 ------- null}
h -t 0.1 -s 7 -d 21 -p cbr -e 24 -c 2 -i 13 -a 2 -x {7.0 0.6 1 ------- null}
h -t 0.1 -s 8 -d 21 -p cbr -e 1000 -c 3 -i 14 -a 3 -x {8.0 0.7 0 ------- null}
h -t 0.1 -s 8 -d 21 -p cbr -e 24 -c 3 -i 15 -a 3 -x {8.0 0.7 1 ------- null}
h -t 0.1 -s 9 -d 21 -p cbr -e 1000 -c 1 -i 16 -a 1 -x {9.0 0.8 0 ------- null}
h -t 0.1 -s 9 -d 21 -p cbr -e 24 -c 1 -i 17 -a 1 -x {9.0 0.8 1 ------- null}
h -t 0.1 -s 10 -d 21 -p cbr -e 1000 -c 2 -i 18 -a 2 -x {10.0 0.9 0 ------- null}
h -t 0.1 -s 10 -d 21 -p cbr -e 24 -c 2 -i 19 -a 2 -x {10.0 0.9 1 ------- null}
h -t 0.1 -s 11 -d 21 -p cbr -e 1000 -c 3 -i 20 -a 3 -x {11.0 0.10 0 ------- null}
h -t 0.1 -s 11 -d 21 -p cbr -e 24 -c 3 -i 21 -a 3 -x {11.0 0.10 1 ------- null}
h -t 0.1 -s 12 -d 21 -p cbr -e 1000 -c 1 -i 22 -a 1 -x {12.0 0.11 0 ------- null}
h -t 0.1 -s 12 -d 21 -p cbr -e 24 -c 1 -i 23 -a 1 -x {12.0 0.11 1 ------- null}
h -t 0.1 -s 13 -d 21 -p cbr -e 1000 -c 2 -i 24 -a 2 -x {13.0 0.12 0 ------- null}
h -t 0.1 -s 13 -d 21 -p cbr -e 24 -c 2 -i 25 -a 2 -x {13.0 0.12 1 ------- null}
h -t 0.1 -s 14 -d 21 -p cbr -e 1000 -c 3 -i 26 -a 3 -x {14.0 0.13 0 ------- null}
h -t 0.1 -s 14 -d 21 -p cbr -e 24 -c 3 -i 27 -a 3 -x {14.0 0.13 1 ------- null}
h -t 0.1 -s 15 -d 21 -p cbr -e 1000 -c 1 -i 28 -a 1 -x {15.0 0.14 0 ------- null}
h -t 0.1 -s 15 -d 21 -p cbr -e 24 -c 1 -i 29 -a 1 -x {15.0 0.14 1 ------- null}
h -t 0.1 -s 16 -d 21 -p cbr -e 1000 -c 2 -i 30 -a 2 -x {16.0 0.15 0 ------- null}
h -t 0.1 -s 16 -d 21 -p cbr -e 24 -c 2 -i 31 -a 2 -x {16.0 0.15 1 ------- null}
h -t 0.1 -s 17 -d 21 -p cbr -e 1000 -c 3 -i 32 -a 3 -x {17.0 0.16 0 ------- null}
h -t 0.1 -s 17 -d 21 -p cbr -e 24 -c 3 -i 33 -a 3 -x {17.0 0.16 1 ------- null}
h -t 0.1 -s 18 -d 21 -p cbr -e 1000 -c 1 -i 34 -a 1 -x {18.0 0.17 0 ------- null}
h -t 0.1 -s 18 -d 21 -p cbr -e 24 -c 1 -i 35 -a 1 -x {18.0 0.17 1 ------- null}
h -t 0.1 -s 19 -d 21 -p cbr -e 1000 -c 2 -i 36 -a 2 -x {19.0 0.18 0 ------- null}
h -t 0.1 -s 19 -d 21 -p cbr -e 24 -c 2 -i 37 -a 2 -x {19.0 0.18 1 ------- null}
h -t 0.1 -s 20 -d 21 -p cbr -e 1000 -c 3 -i 38 -a 3 -x {20.0 0.19 0 ------- null}
h -t 0.1 -s 20 -d 21 -p cbr -e 24 -c 3 -i 39 -a 3 -x {20.0 0.19 1 ------- null}
+ -t 0.13 -s 1 -d 21 -p cbr -e 1000 -c 2 -i 0 -a 2 -x {1.0 0.0 0 ------- null}
- -t 0.13 -s 1 -d 21 -p cbr -e 1000 -c 2 -i 0 -a 2 -x {1.0 0.0 0 ------- null}
h -t 0.13 -s 1 -d 21 -p cbr -e 1000 -c 2 -i 0 -a 2 -x {1.0 0.0 -1 ------- null}
+ -t 0.13 -s 1 -d 21 -p cbr -e 24 -c 2 -i 1 -a 2 -x {1.0 0.0 1 ------- null}
+ -t 0.13 -s 2 -d 21 -p cbr -e 1000 -c 3 -i 2 -a 3 -x {2.0 0.1 0 ------- null}
- -t 0.13 -s 2 -d 21 -p cbr -e 1000 -c 3 -i 2 -a 3 -x {2.0 0.1 0 ------- null}
h -t 0.13 -s 2 -d 21 -p cbr -e 1000 -c 3 -i 2 -a 3 -x {2.0 0.1 -1 ------- null}
+ -t 0.13 -s 2 -d 21 -p cbr -e 24 -c 3 -i 3 -a 3 -x {2.0 0.1 1 ------- null}
+ -t 0.13 -s 3 -d 21 -p cbr -e 1000 -c 1 -i 4 -a 1 -x {3.0 0.2 0 ------- null}
- -t 0.13 -s 3 -d 21 -p cbr -e 1000 -c 1 -i 4 -a 1 -x {3.0 0.2 0 ------- null}
h -t 0.13 -s 3 -d 21 -p cbr -e 1000 -c 1 -i 4 -a 1 -x {3.0 0.2 -1 ------- null}
+ -t 0.13 -s 3 -d 21 -p cbr -e 24 -c 1 -i 5 -a 1 -x {3.0 0.2 1 ------- null}
+ -t 0.13 -s 4 -d 21 -p cbr -e 1000 -c 2 -i 6 -a 2 -x {4.0 0.3 0 ------- null}
- -t 0.13 -s 4 -d 21 -p cbr -e 1000 -c 2 -i 6 -a 2 -x {4.0 0.3 0 ------- null}
h -t 0.13 -s 4 -d 21 -p cbr -e 1000 -c 2 -i 6 -a 2 -x {4.0 0.3 -1 ------- null}
+ -t 0.13 -s 4 -d 21 -p cbr -e 24 -c 2 -i 7 -a 2 -x {4.0 0.3 1 ------- null}
+ -t 0.13 -s 5 -d 21 -p cbr -e 1000 -c 3 -i 8 -a 3 -x {5.0 0.4 0 ------- null}
- -t 0.13 -s 5 -d 21 -p cbr -e 1000 -c 3 -i 8 -a 3 -x {5.0 0.4 0 ------- null}
h -t 0.13 -s 5 -d 21 -p cbr -e 1000 -c 3 -i 8 -a 3 -x {5.0 0.4 -1 ------- null}
+ -t 0.13 -s 5 -d 21 -p cbr -e 24 -c 3 -i 9 -a 3 -x {5.0 0.4 1 ------- null}
+ -t 0.13 -s 6 -d 21 -p cbr -e 1000 -c 1 -i 10 -a 1 -x {6.0 0.5 0 ------- null}
- -t 0.13 -s 6 -d 21 -p cbr -e 1000 -c 1 -i 10 -a 1 -x {6.0 0.5 0 ------- null}
h -t 0.13 -s 6 -d 21 -p cbr -e 1000 -c 1 -i 10 -a 1 -x {6.0 0.5 -1 ------- null}
+ -t 0.13 -s 6 -d 21 -p cbr -e 24 -c 1 -i 11 -a 1 -x {6.0 0.5 1 ------- null}
+ -t 0.13 -s 7 -d 21 -p cbr -e 1000 -c 2 -i 12 -a 2 -x {7.0 0.6 0 ------- null}
- -t 0.13 -s 7 -d 21 -p cbr -e 1000 -c 2 -i 12 -a 2 -x {7.0 0.6 0 ------- null}
h -t 0.13 -s 7 -d 21 -p cbr -e 1000 -c 2 -i 12 -a 2 -x {7.0 0.6 -1 ------- null}
+ -t 0.13 -s 7 -d 21 -p cbr -e 24 -c 2 -i 13 -a 2 -x {7.0 0.6 1 ------- null}
+ -t 0.13 -s 8 -d 21 -p cbr -e 1000 -c 3 -i 14 -a 3 -x {8.0 0.7 0 ------- null}
- -t 0.13 -s 8 -d 21 -p cbr -e 1000 -c 3 -i 14 -a 3 -x {8.0 0.7 0 ------- null}
h -t 0.13 -s 8 -d 21 -p cbr -e 1000 -c 3 -i 14 -a 3 -x {8.0 0.7 -1 ------- null}
+ -t 0.13 -s 8 -d 21 -p cbr -e 24 -c 3 -i 15 -a 3 -x {8.0 0.7 1 ------- null}
+ -t 0.13 -s 9 -d 21 -p cbr -e 1000 -c 1 -i 16 -a 1 -x {9.0 0.8 0 ------- null}
- -t 0.13 -s 9 -d 21 -p cbr -e 1000 -c 1 -i 16 -a 1 -x {9.0 0.8 0 ------- null}
h -t 0.13 -s 9 -d 21 -p cbr -e 1000 -c 1 -i 16 -a 1 -x {9.0 0.8 -1 ------- null}
+ -t 0.13 -s 9 -d 21 -p cbr -e 24 -c 1 -i 17 -a 1 -x {9.0 0.8 1 ------- null}
+ -t 0.13 -s 10 -d 21 -p cbr -e 1000 -c 2 -i 18 -a 2 -x {10.0 0.9 0 ------- null}
- -t 0.13 -s 10 -d 21 -p cbr -e 1000 -c 2 -i 18 -a 2 -x {10.0 0.9 0 ------- null}
h -t 0.13 -s 10 -d 21 -p cbr -e 1000 -c 2 -i 18 -a 2 -x {10.0 0.9 -1 ------- null}
+ -t 0.13 -s 10 -d 21 -p cbr -e 24 -c 2 -i 19 -a 2 -x {10.0 0.9 1 ------- null}
+ -t 0.13 -s 11 -d 21 -p cbr -e 1000 -c 3 -i 20 -a 3 -x {11.0 0.10 0 ------- null}
- -t 0.13 -s 11 -d 21 -p cbr -e 1000 -c 3 -i 20 -a 3 -x {11.0 0.10 0 ------- null}
h -t 0.13 -s 11 -d 21 -p cbr -e 1000 -c 3 -i 20 -a 3 -x {11.0 0.10 -1 ------- null}
+ -t 0.13 -s 11 -d 21 -p cbr -e 24 -c 3 -i 21 -a 3 -x {11.0 0.10 1 ------- null}
+ -t 0.13 -s 12 -d 21 -p cbr -e 1000 -c 1 -i 22 -a 1 -x {12.0 0.11 0 ------- null}
- -t 0.13 -s 12 -d 21 -p cbr -e 1000 -c 1 -i 22 -a 1 -x {12.0 0.11 0 ------- null}
h -t 0.13 -s 12 -d 21 -p cbr -e 1000 -c 1 -i 22 -a 1 -x {12.0 0.11 -1 ------- null}
+ -t 0.13 -s 12 -d 21 -p cbr -e 24 -c 1 -i 23 -a 1 -x {12.0 0.11 1 ------- null}
+ -t 0.13 -s 13 -d 21 -p cbr -e 1000 -c 2 -i 24 -a 2 -x {13.0 0.12 0 ------- null}
- -t 0.13 -s 13 -d 21 -p cbr -e 1000 -c 2 -i 24 -a 2 -x {13.0 0.12 0 ------- null}
h -t 0.13 -s 13 -d 21 -p cbr -e 1000 -c 2 -i 24 -a 2 -x {13.0 0.12 -1 ------- null}
+ -t 0.13 -s 13 -d 21 -p cbr -e 24 -c 2 -i 25 -a 2 -x {13.0 0.12 1 ------- null}
+ -t 0.13 -s 14 -d 21 -p cbr -e 1000 -c 3 -i 26 -a 3 -x {14.0 0.13 0 ------- null}
- -t 0.13 -s 14 -d 21 -p cbr -e 1000 -c 3 -i 26 -a 3 -x {14.0 0.13 0 ------- null}
h -t 0.13 -s 14 -d 21 -p cbr -e 1000 -c 3 -i 26 -a 3 -x {14.0 0.13 -1 ------- null}
+ -t 0.13 -s 14 -d 21 -p cbr -e 24 -c 3 -i 27 -a 3 -x {14.0 0.13 1 ------- null}
+ -t 0.13 -s 15 -d 21 -p cbr -e 1000 -c 1 -i 28 -a 1 -x {15.0 0.14 0 ------- null}
- -t 0.13 -s 15 -d 21 -p cbr -e 1000 -c 1 -i 28 -a 1 -x {15.0 0.14 0 ------- null}
h -t 0.13 -s 15 -d 21 -p cbr -e 1000 -c 1 -i 28 -a 1 -x {15.0 0.14 -1 ------- null}
+ -t 0.13 -s 15 -d 21 -p cbr -e 24 -c 1 -i 29 -a 1 -x {15.0 0.14 1 ------- null}
+ -t 0.13 -s 16 -d 21 -p cbr -e 1000 -c 2 -i 30 -a 2 -x {16.0 0.15 0 ------- null}
- -t 0.13 -s 16 -d 21 -p cbr -e 1000 -c 2 -i 30 -a 2 -x {16.0 0.15 0 ------- null}
h -t 0.13 -s 16 -d 21 -p cbr -e 1000 -c 2 -i 30 -a 2 -x {16.0 0.15 -1 ------- null}
+ -t 0.13 -s 16 -d 21 -p cbr -e 24 -c 2 -i 31 -a 2 -x {16.0 0.15 1 ------- null}
+ -t 0.13 -s 17 -d 21 -p cbr -e 1000 -c 3 -i 32 -a 3 -x {17.0 0.16 0 ------- null}
- -t 0.13 -s 17 -d 21 -p cbr -e 1000 -c 3 -i 32 -a 3 -x {17.0 0.16 0 ------- null}
h -t 0.13 -s 17 -d 21 -p cbr -e 1000 -c 3 -i 32 -a 3 -x {17.0 0.16 -1 ------- null}
+ -t 0.13 -s 17 -d 21 -p cbr -e 24 -c 3 -i 33 -a 3 -x {17.0 0.16 1 ------- null}
+ -t 0.13 -s 18 -d 21 -p cbr -e 1000 -c 1 -i 34 -a 1 -x {18.0 0.17 0 ------- null}
- -t 0.13 -s 18 -d 21 -p cbr -e 1000 -c 1 -i 34 -a 1 -x {18.0 0.17 0 ------- null}
h -t 0.13 -s 18 -d 21 -p cbr -e 1000 -c 1 -i 34 -a 1 -x {18.0 0.17 -1 ------- null}
+ -t 0.13 -s 18 -d 21 -p cbr -e 24 -c 1 -i 35 -a 1 -x {18.0 0.17 1 ------- null}
+ -t 0.13 -s 19 -d 21 -p cbr -e 1000 -c 2 -i 36 -a 2 -x {19.0 0.18 0 ------- null}
- -t 0.13 -s 19 -d 21 -p cbr -e 1000 -c 2 -i 36 -a 2 -x {19.0 0.18 0 ------- null}
h -t 0.13 -s 19 -d 21 -p cbr -e 1000 -c 2 -i 36 -a 2 -x {19.0 0.18 -1 ------- null}
+ -t 0.13 -s 19 -d 21 -p cbr -e 24 -c 2 -i 37 -a 2 -x {19.0 0.18 1 ------- null}
+ -t 0.13 -s 20 -d 21 -p cbr -e 1000 -c 3 -i 38 -a 3 -x {20.0 0.19 0 ------- null}
- -t 0.13 -s 20 -d 21 -p cbr -e 1000 -c 3 -i 38 -a 3 -x {20.0 0.19 0 ------- null}
h -t 0.13 -s 20 -d 21 -p cbr -e 1000 -c 3 -i 38 -a 3 -x {20.0 0.19 -1 ------- null}
+ -t 0.13 -s 20 -d 21 -p cbr -e 24 -c 3 -i 39 -a 3 -x {20.0 0.19 1 ------- null}
h -t 0.132768 -s 1 -d 21 -p cbr -e 1000 -c 2 -i 40 -a 2 -x {1.0 0.0 2 ------- null}
h -t 0.132768 -s 1 -d 21 -p cbr -e 24 -c 2 -i 41 -a 2 -x {1.0 0.0 3 ------- null}
h -t 0.132768 -s 2 -d 21 -p cbr -e 1000 -c 3 -i 42 -a 3 -x {2.0 0.1 2 ------- null}
h -t 0.132768 -s 2 -d 21 -p cbr -e 24 -c 3 -i 43 -a 3 -x {2.0 0.1 3 ------- null}
h -t 0.132768 -s 3 -d 21 -p cbr -e 1000 -c 1 -i 44 -a 1 -x {3.0 0.2 2 ------- null}
h -t 0.132768 -s 3 -d 21 -p cbr -e 24 -c 1 -i 45 -a 1 -x {3.0 0.2 3 ------- null}
h -t 0.132768 -s 4 -d 21 -p cbr -e 1000 -c 2 -i 46 -a 2 -x {4.0 0.3 2 ------- null}
h -t 0.132768 -s 4 -d 21 -p cbr -e 24 -c 2 -i 47 -a 2 -x {4.0 0.3 3 ------- null}
h -t 0.132768 -s 5 -d 21 -p cbr -e 1000 -c 3 -i 48 -a 3 -x {5.0 0.4 2 ------- null}
h -t 0.132768 -s 5 -d 21 -p cbr -e 24 -c 3 -i 49 -a 3 -x {5.0 0.4 3 ------- null}
h -t 0.132768 -s 6 -d 21 -p cbr -e 1000 -c 1 -i 50 -a 1 -x {6.0 0.5 2 ------- null}
h -t 0.132768 -s 6 -d 21 -p cbr -e 24 -c 1 -i 51 -a 1 -x {6.0 0.5 3 ------- null}
h -t 0.132768 -s 7 -d 21 -p cbr -e 1000 -c 2 -i 52 -a 2 -x {7.0 0.6 2 ------- null}
h -t 0.132768 -s 7 -d 21 -p cbr -e 24 -c 2 -i 53 -a 2 -x {7.0 0.6 3 ------- null}
h -t 0.132768 -s 8 -d 21 -p cbr -e 1000 -c 3 -i 54 -a 3 -x {8.0 0.7 2 ------- null}
h -t 0.132768 -s 8 -d 21 -p cbr -e 24 -c 3 -i 55 -a 3 -x {8.0 0.7 3 ------- null}
h -t 0.132768 -s 9 -d 21 -p cbr -e 1000 -c 1 -i 56 -a 1 -x {9.0 0.8 2 ------- null}
h -t 0.132768 -s 9 -d 21 -p cbr -e 24 -c 1 -i 57 -a 1 -x {9.0 0.8 3 ------- null}
h -t 0.132768 -s 10 -d 21 -p cbr -e 1000 -c 2 -i 58 -a 2 -x {10.0 0.9 2 ------- null}
h -t 0.132768 -s 10 -d 21 -p cbr -e 24 -c 2 -i 59 -a 2 -x {10.0 0.9 3 ------- null}
h -t 0.132768 -s 11 -d 21 -p cbr -e 1000 -c 3 -i 60 -a 3 -x {11.0 0.10 2 ------- null}
h -t 0.132768 -s 11 -d 21 -p cbr -e 24 -c 3 -i 61 -a 3 -x {11.0 0.10 3 ------- null}
h -t 0.132768 -s 12 -d 21 -p cbr -e 1000 -c 1 -i 62 -a 1 -x {12.0 0.11 2 ------- null}
h -t 0.132768 -s 12 -d 21 -p cbr -e 24 -c 1 -i 63 -a 1 -x {12.0 0.11 3 ------- null}
h -t 0.132768 -s 13 -d 21 -p cbr -e 1000 -c 2 -i 64 -a 2 -x {13.0 0.12 2 ------- null}
h -t 0.132768 -s 13 -d 21 -p cbr -e 24 -c 2 -i 65 -a 2 -x {13.0 0.12 3 ------- null}
h -t 0.132768 -s 14 -d 21 -p cbr -e 1000 -c 3 -i 66 -a 3 -x {14.0 0.13 2 ------- null}
h -t 0.132768 -s 14 -d 21 -p cbr -e 24 -c 3 -i 67 -a 3 -x {14.0 0.13 3 ------- null}
h -t 0.132768 -s 15 -d 21 -p cbr -e 1000 -c 1 -i 68 -a 1 -x {15.0 0.14 2 ------- null}
h -t 0.132768 -s 15 -d 21 -p cbr -e 24 -c 1 -i 69 -a 1 -x {15.0 0.14 3 ------- null}
h -t 0.132768 -s 16 -d 21 -p cbr -e 1000 -c 2 -i 70 -a 2 -x {16.0 0.15 2 ------- null}
h -t 0.132768 -s 16 -d 21 -p cbr -e 24 -c 2 -i 71 -a 2 -x {16.0 0.15 3 ------- null}
h -t 0.132768 -s 17 -d 21 -p cbr -e 1000 -c 3 -i 72 -a 3 -x {17.0 0.16 2 ------- null}
h -t 0.132768 -s 17 -d 21 -p cbr -e 24 -c 3 -i 73 -a 3 -x {17.0 0.16 3 ------- null}
h -t 0.132768 -s 18 -d 21 -p cbr -e 1000 -c 1 -i 74 -a 1 -x {18.0 0.17 2 ------- null}
h -t 0.132768 -s 18 -d 21 -p cbr -e 24 -c 1 -i 75 -a 1 -x {18.0 0.17 3 ------- null}
h -t 0.132768 -s 19 -d 21 -p cbr -e 1000 -c 2 -i 76 -a 2 -x {19.0 0.18 2 ------- null}
h -t 0.132768 -s 19 -d 21 -p cbr -e 24 -c 2 -i 77 -a 2 -x {19.0 0.18 3 ------- null}
h -t 0.132768 -s 20 -d 21 -p cbr -e 1000 -c 3 -i 78 -a 3 -x {20.0 0.19 2 ------- null}
h -t 0.132768 -s 20 -d 21 -p cbr -e 24 -c 3 -i 79 -a 3 -x {20.0 0.19 3 ------- null}
- -t 0.138472 -s 20 -d 21 -p cbr -e 24 -c 3 -i 39 -a 3 -x {20.0 0.19 1 ------- null}
h -t 0.138472 -s 20 -d 21 -p cbr -e 24 -c 3 -i 39 -a 3 -x {20.0 0.19 -1 ------- null}
- -t 0.147836 -s 7 -d 21 -p cbr -e 24 -c 2 -i 13 -a 2 -x {7.0 0.6 1 ------- null}
h -t 0.147836 -s 7 -d 21 -p cbr -e 24 -c 2 -i 13 -a 2 -x {7.0 0.6 -1 ------- null}
- -t 0.157948 -s 9 -d 21 -p cbr -e 24 -c 1 -i 17 -a 1 -x {9.0 0.8 1 ------- null}
h -t 0.157948 -s 9 -d 21 -p cbr -e 24 -c 1 -i 17 -a 1 -x {9.0 0.8 -1 ------- null}
+ -t 0.162768 -s 1 -d 21 -p cbr -e 1000 -c 2 -i 40 -a 2 -x {1.0 0.0 2 ------- null}
+ -t 0.162768 -s 1 -d 21 -p cbr -e 24 -c 2 -i 41 -a 2 -x {1.0 0.0 3 ------- null}
+ -t 0.162768 -s 2 -d 21 -p cbr -e 1000 -c 3 -i 42 -a 3 -x {2.0 0.1 2 ------- null}
+ -t 0.162768 -s 2 -d 21 -p cbr -e 24 -c 3 -i 43 -a 3 -x {2.0 0.1 3 ------- null}
+ -t 0.162768 -s 3 -d 21 -p cbr -e 1000 -c 1 -i 44 -a 1 -x {3.0 0.2 2 ------- null}
+ -t 0.162768 -s 3 -d 21 -p cbr -e 24 -c 1 -i 45 -a 1 -x {3.0 0.2 3 ------- null}
+ -t 0.162768 -s 4 -d 21 -p cbr -e 1000 -c 2 -i 46 -a 2 -x {4.0 0.3 2 ------- null}
+ -t 0.162768 -s 4 -d 21 -p cbr -e 24 -c 2 -i 47 -a 2 -x {4.0 0.3 3 ------- null}
+ -t 0.162768 -s 5 -d 21 -p cbr -e 1000 -c 3 -i 48 -a 3 -x {5.0 0.4 2 ------- null}
+ -t 0.162768 -s 5 -d 21 -p cbr -e 24 -c 3 -i 49 -a 3 -x {5.0 0.4 3 ------- null}
+ -t 0.162768 -s 6 -d 21 -p cbr -e 1000 -c 1 -i 50 -a 1 -x {6.0 0.5 2 ------- null}
+ -t 0.162768 -s 6 -d 21 -p cbr -e 24 -c 1 -i 51 -a 1 -x {6.0 0.5 3 ------- null}
+ -t 0.162768 -s 7 -d 21 -p cbr -e 1000 -c 2 -i 52 -a 2 -x {7.0 0.6 2 ------- null}
- -t 0.162768 -s 7 -d 21 -p cbr -e 1000 -c 2 -i 52 -a 2 -x {7.0 0.6 2 ------- null}
h -t 0.162768 -s 7 -d 21 -p cbr -e 1000 -c 2 -i 52 -a 2 -x {7.0 0.6 -1 ------- null}
+ -t 0.162768 -s 7 -d 21 -p cbr -e 24 -c 2 -i 53 -a 2 -x {7.0 0.6 3 ------- null}
+ -t 0.162768 -s 8 -d 21 -p cbr -e 1000 -c 3 -i 54 -a 3 -x {8.0 0.7 2 ------- null}
+ -t 0.162768 -s 8 -d 21 -p cbr -e 24 -c 3 -i 55 -a 3 -x {8.0 0.7 3 ------- null}
+ -t 0.162768 -s 9 -d 21 -p cbr -e 1000 -c 1 -i 56 -a 1 -x {9.0 0.8 2 ------- null}
- -t 0.162768 -s 9 -d 21 -p cbr -e 1000 -c 1 -i 56 -a 1 -x {9.0 0.8 2 ------- null}
h -t 0.162768 -s 9 -d 21 -p cbr -e 1000 -c 1 -i 56 -a 1 -x {9.0 0.8 -1 ------- null}
+ -t 0.162768 -s 9 -d 21 -p cbr -e 24 -c 1 -i 57 -a 1 -x {9.0 0.8 3 ------- null}
+ -t 0.162768 -s 10 -d 21 -p cbr -e 1000 -c 2 -i 58 -a 2 -x {10.0 0.9 2 ------- null}
+ -t 0.162768 -s 10 -d 21 -p cbr -e 24 -c 2 -i 59 -a 2 -x {10.0 0.9 3 ------- null}
+ -t 0.162768 -s 11 -d 21 -p cbr -e 1000 -c 3 -i 60 -a 3 -x {11.0 0.10 2 ------- null}
+ -t 0.162768 -s 11 -d 21 -p cbr -e 24 -c 3 -i 61 -a 3 -x {11.0 0.10 3 ------- null}
+ -t 0.162768 -s 12 -d 21 -p cbr -e 1000 -c 1 -i 62 -a 1 -x {12.0 0.11 2 ------- null}
+ -t 0.162768 -s 12 -d 21 -p cbr -e 24 -c 1 -i 63 -a 1 -x {12.0 0.11 3 ------- null}
+ -t 0.162768 -s 13 -d 21 -p cbr -e 1000 -c 2 -i 64 -a 2 -x {13.0 0.12 2 ------- null}
+ -t 0.162768 -s 13 -d 21 -p cbr -e 24 -c 2 -i 65 -a 2 -x {13.0 0.12 3 ------- null}
+ -t 0.162768 -s 14 -d 21 -p cbr -e 1000 -c 3 -i 66 -a 3 -x {14.0 0.13 2 ------- null}
+ -t 0.162768 -s 14 -d 21 -p cbr -e 24 -c 3 -i 67 -a 3 -x {14.0 0.13 3 ------- null}
+ -t 0.162768 -s 15 -d 21 -p cbr -e 1000 -c 1 -i 68 -a 1 -x {15.0 0.14 2 ------- null}
+ -t 0.162768 -s 15 -d 21 -p cbr -e 24 -c 1 -i 69 -a 1 -x {15.0 0.14 3 ------- null}
+ -t 0.162768 -s 16 -d 21 -p cbr -e 1000 -c 2 -i 70 -a 2 -x {16.0 0.15 2 ------- null}
+ -t 0.162768 -s 16 -d 21 -p cbr -e 24 -c 2 -i 71 -a 2 -x {16.0 0.15 3 ------- null}
+ -t 0.162768 -s 17 -d 21 -p cbr -e 1000 -c 3 -i 72 -a 3 -x {17.0 0.16 2 ------- null}
+ -t 0.162768 -s 17 -d 21 -p cbr -e 24 -c 3 -i 73 -a 3 -x {17.0 0.16 3 ------- null}
+ -t 0.162768 -s 18 -d 21 -p cbr -e 1000 -c 1 -i 74 -a 1 -x {18.0 0.17 2 ------- null}
+ -t 0.162768 -s 18 -d 21 -p cbr -e 24 -c 1 -i 75 -a 1 -x {18.0 0.17 3 ------- null}
+ -t 0.162768 -s 19 -d 21 -p cbr -e 1000 -c 2 -i 76 -a 2 -x {19.0 0.18 2 ------- null}
+ -t 0.162768 -s 19 -d 21 -p cbr -e 24 -c 2 -i 77 -a 2 -x {19.0 0.18 3 ------- null}
+ -t 0.162768 -s 20 -d 21 -p cbr -e 1000 -c 3 -i 78 -a 3 -x {20.0 0.19 2 ------- null}
+ -t 0.162768 -s 20 -d 21 -p cbr -e 24 -c 3 -i 79 -a 3 -x {20.0 0.19 3 ------- null}
h -t 0.165536 -s 1 -d 21 -p cbr -e 1000 -c 2 -i 80 -a 2 -x {1.0 0.0 4 ------- null}
h -t 0.165536 -s 1 -d 21 -p cbr -e 24 -c 2 -i 81 -a 2 -x {1.0 0.0 5 ------- null}
h -t 0.165536 -s 2 -d 21 -p cbr -e 1000 -c 3 -i 82 -a 3 -x {2.0 0.1 4 ------- null}
h -t 0.165536 -s 2 -d 21 -p cbr -e 24 -c 3 -i 83 -a 3 -x {2.0 0.1 5 ------- null}
h -t 0.165536 -s 3 -d 21 -p cbr -e 1000 -c 1 -i 84 -a 1 -x {3.0 0.2 4 ------- null}
h -t 0.165536 -s 3 -d 21 -p cbr -e 24 -c 1 -i 85 -a 1 -x {3.0 0.2 5 ------- null}
h -t 0.165536 -s 4 -d 21 -p cbr -e 1000 -c 2 -i 86 -a 2 -x {4.0 0.3 4 ------- null}
h -t 0.165536 -s 4 -d 21 -p cbr -e 24 -c 2 -i 87 -a 2 -x {4.0 0.3 5 ------- null}
h -t 0.165536 -s 5 -d 21 -p cbr -e 1000 -c 3 -i 88 -a 3 -x {5.0 0.4 4 ------- null}
h -t 0.165536 -s 5 -d 21 -p cbr -e 24 -c 3 -i 89 -a 3 -x {5.0 0.4 5 ------- null}
h -t 0.165536 -s 6 -d 21 -p cbr -e 1000 -c 1 -i 90 -a 1 -x {6.0 0.5 4 ------- null}
h -t 0.165536 -s 6 -d 21 -p cbr -e 24 -c 1 -i 91 -a 1 -x {6.0 0.5 5 ------- null}
h -t 0.165536 -s 7 -d 21 -p cbr -e 1000 -c 2 -i 92 -a 2 -x {7.0 0.6 4 ------- null}
h -t 0.165536 -s 7 -d 21 -p cbr -e 24 -c 2 -i 93 -a 2 -x {7.0 0.6 5 ------- null}
h -t 0.165536 -s 8 -d 21 -p cbr -e 1000 -c 3 -i 94 -a 3 -x {8.0 0.7 4 ------- null}
h -t 0.165536 -s 8 -d 21 -p cbr -e 24 -c 3 -i 95 -a 3 -x {8.0 0.7 5 ------- null}
h -t 0.165536 -s 9 -d 21 -p cbr -e 1000 -c 1 -i 96 -a 1 -x {9.0 0.8 4 ------- null}
h -t 0.165536 -s 9 -d 21 -p cbr -e 24 -c 1 -i 97 -a 1 -x {9.0 0.8 5 ------- null}
h -t 0.165536 -s 10 -d 21 -p cbr -e 1000 -c 2 -i 98 -a 2 -x {10.0 0.9 4 ------- null}
h -t 0.165536 -s 10 -d 21 -p cbr -e 24 -c 2 -i 99 -a 2 -x {10.0 0.9 5 ------- null}
h -t 0.165536 -s 11 -d 21 -p cbr -e 1000 -c 3 -i 100 -a 3 -x {11.0 0.10 4 ------- null}
h -t 0.165536 -s 11 -d 21 -p cbr -e 24 -c 3 -i 101 -a 3 -x {11.0 0.10 5 ------- null}
h -t 0.165536 -s 12 -d 21 -p cbr -e 1000 -c 1 -i 102 -a 1 -x {12.0 0.11 4 ------- null}
h -t 0.165536 -s 12 -d 21 -p cbr -e 24 -c 1 -i 103 -a 1 -x {12.0 0.11 5 ------- null}
h -t 0.165536 -s 13 -d 21 -p cbr -e 1000 -c 2 -i 104 -a 2 -x {13.0 0.12 4 ------- null}
h -t 0.165536 -s 13 -d 21 -p cbr -e 24 -c 2 -i 105 -a 2 -x {13.0 0.12 5 ------- null}
h -t 0.165536 -s 14 -d 21 -p cbr -e 1000 -c 3 -i 106 -a 3 -x {14.0 0.13 4 ------- null}
h -t 0.165536 -s 14 -d 21 -p cbr -e 24 -c 3 -i 107 -a 3 -x {14.0 0.13 5 ------- null}
h -t 0.165536 -s 15 -d 21 -p cbr -e 1000 -c 1 -i 108 -a 1 -x {15.0 0.14 4 ------- null}
h -t 0.165536 -s 15 -d 21 -p cbr -e 24 -c 1 -i 109 -a 1 -x {15.0 0.14 5 ------- null}
h -t 0.165536 -s 16 -d 21 -p cbr -e 1000 -c 2 -i 110 -a 2 -x {16.0 0.15 4 ------- null}
h -t 0.165536 -s 16 -d 21 -p cbr -e 24 -c 2 -i 111 -a 2 -x {16.0 0.15 5 ------- null}
h -t 0.165536 -s 17 -d 21 -p cbr -e 1000 -c 3 -i 112 -a 3 -x {17.0 0.16 4 ------- null}
h -t 0.165536 -s 17 -d 21 -p cbr -e 24 -c 3 -i 113 -a 3 -x {17.0 0.16 5 ------- null}
h -t 0.165536 -s 18 -d 21 -p cbr -e 1000 -c 1 -i 114 -a 1 -x {18.0 0.17 4 ------- null}
h -t 0.165536 -s 18 -d 21 -p cbr -e 24 -c 1 -i 115 -a 1 -x {18.0 0.17 5 ------- null}
h -t 0.165536 -s 19 -d 21 -p cbr -e 1000 -c 2 -i 116 -a 2 -x {19.0 0.18 4 ------- null}
h -t 0.165536 -s 19 -d 21 -p cbr -e 24 -c 2 -i 117 -a 2 -x {19.0 0.18 5 ------- null}
h -t 0.165536 -s 20 -d 21 -p cbr -e 1000 -c 3 -i 118 -a 3 -x {20.0 0.19 4 ------- null}
h -t 0.165536 -s 20 -d 21 -p cbr -e 24 -c 3 -i 119 -a 3 -x {20.0 0.19 5 ------- null}
- -t 0.166904 -s 12 -d 21 -p cbr -e 24 -c 1 -i 23 -a 1 -x {12.0 0.11 1 ------- null}
h -t 0.166904 -s 12 -d 21 -p cbr -e 24 -c 1 -i 23 -a 1 -x {12.0 0.11 -1 ------- null}
r -t 0.16838 -s 21 -d 0 -p cbr -e 1000 -c 3 -i 38 -a 3 -x {20.0 0.19 0 ------- null}
- -t 0.17538 -s 7 -d 21 -p cbr -e 24 -c 2 -i 53 -a 2 -x {7.0 0.6 3 ------- null}
h -t 0.17538 -s 7 -d 21 -p cbr -e 24 -c 2 -i 53 -a 2 -x {7.0 0.6 -1 ------- null}
r -t 0.177744 -s 21 -d 0 -p cbr -e 1000 -c 2 -i 12 -a 2 -x {7.0 0.6 0 ------- null}
r -t 0.179 -s 21 -d 0 -p cbr -e 24 -c 2 -i 13 -a 2 -x {7.0 0.6 1 ------- null}
- -t 0.184232 -s 9 -d 21 -p cbr -e 24 -c 1 -i 57 -a 1 -x {9.0 0.8 3 ------- null}
h -t 0.184232 -s 9 -d 21 -p cbr -e 24 -c 1 -i 57 -a 1 -x {9.0 0.8 -1 ------- null}
r -t 0.187856 -s 21 -d 0 -p cbr -e 1000 -c 1 -i 16 -a 1 -x {9.0 0.8 0 ------- null}
r -t 0.1886 -s 21 -d 0 -p cbr -e 24 -c 1 -i 17 -a 1 -x {9.0 0.8 1 ------- null}
- -t 0.193936 -s 13 -d 21 -p cbr -e 24 -c 2 -i 25 -a 2 -x {13.0 0.12 1 ------- null}
h -t 0.193936 -s 13 -d 21 -p cbr -e 24 -c 2 -i 25 -a 2 -x {13.0 0.12 -1 ------- null}
- -t 0.195192 -s 13 -d 21 -p cbr -e 1000 -c 2 -i 64 -a 2 -x {13.0 0.12 2 ------- null}
h -t 0.195192 -s 13 -d 21 -p cbr -e 1000 -c 2 -i 64 -a 2 -x {13.0 0.12 -1 ------- null}
+ -t 0.195536 -s 1 -d 21 -p cbr -e 1000 -c 2 -i 80 -a 2 -x {1.0 0.0 4 ------- null}
+ -t 0.195536 -s 1 -d 21 -p cbr -e 24 -c 2 -i 81 -a 2 -x {1.0 0.0 5 ------- null}
+ -t 0.195536 -s 2 -d 21 -p cbr -e 1000 -c 3 -i 82 -a 3 -x {2.0 0.1 4 ------- null}
+ -t 0.195536 -s 2 -d 21 -p cbr -e 24 -c 3 -i 83 -a 3 -x {2.0 0.1 5 ------- null}
+ -t 0.195536 -s 3 -d 21 -p cbr -e 1000 -c 1 -i 84 -a 1 -x {3.0 0.2 4 ------- null}
+ -t 0.195536 -s 3 -d 21 -p cbr -e 24 -c 1 -i 85 -a 1 -x {3.0 0.2 5 ------- null}
+ -t 0.195536 -s 4 -d 21 -p cbr -e 1000 -c 2 -i 86 -a 2 -x {4.0 0.3 4 ------- null}
+ -t 0.195536 -s 4 -d 21 -p cbr -e 24 -c 2 -i 87 -a 2 -x {4.0 0.3 5 ------- null}
+ -t 0.195536 -s 5 -d 21 -p cbr -e 1000 -c 3 -i 88 -a 3 -x {5.0 0.4 4 ------- null}
+ -t 0.195536 -s 5 -d 21 -p cbr -e 24 -c 3 -i 89 -a 3 -x {5.0 0.4 5 ------- null}
+ -t 0.195536 -s 6 -d 21 -p cbr -e 1000 -c 1 -i 90 -a 1 -x {6.0 0.5 4 ------- null}
+ -t 0.195536 -s 6 -d 21 -p cbr -e 24 -c 1 -i 91 -a 1 -x {6.0 0.5 5 ------- null}
+ -t 0.195536 -s 7 -d 21 -p cbr -e 1000 -c 2 -i 92 -a 2 -x {7.0 0.6 4 ------- null}
+ -t 0.195536 -s 7 -d 21 -p cbr -e 24 -c 2 -i 93 -a 2 -x {7.0 0.6 5 ------- null}
+ -t 0.195536 -s 8 -d 21 -p cbr -e 1000 -c 3 -i 94 -a 3 -x {8.0 0.7 4 ------- null}
+ -t 0.195536 -s 8 -d 21 -p cbr -e 24 -c 3 -i 95 -a 3 -x {8.0 0.7 5 ------- null}
+ -t 0.195536 -s 9 -d 21 -p cbr -e 1000 -c 1 -i 96 -a 1 -x {9.0 0.8 4 ------- null}
- -t 0.195536 -s 9 -d 21 -p cbr -e 1000 -c 1 -i 96 -a 1 -x {9.0 0.8 4 ------- null}
h -t 0.195536 -s 9 -d 21 -p cbr -e 1000 -c 1 -i 96 -a 1 -x {9.0 0.8 -1 ------- null}
+ -t 0.195536 -s 9 -d 21 -p cbr -e 24 -c 1 -i 97 -a 1 -x {9.0 0.8 5 ------- null}
+ -t 0.195536 -s 10 -d 21 -p cbr -e 1000 -c 2 -i 98 -a 2 -x {10.0 0.9 4 ------- null}
+ -t 0.195536 -s 10 -d 21 -p cbr -e 24 -c 2 -i 99 -a 2 -x {10.0 0.9 5 ------- null}
+ -t 0.195536 -s 11 -d 21 -p cbr -e 1000 -c 3 -i 100 -a 3 -x {11.0 0.10 4 ------- null}
+ -t 0.195536 -s 11 -d 21 -p cbr -e 24 -c 3 -i 101 -a 3 -x {11.0 0.10 5 ------- null}
+ -t 0.195536 -s 12 -d 21 -p cbr -e 1000 -c 1 -i 102 -a 1 -x {12.0 0.11 4 ------- null}
+ -t 0.195536 -s 12 -d 21 -p cbr -e 24 -c 1 -i 103 -a 1 -x {12.0 0.11 5 ------- null}
+ -t 0.195536 -s 13 -d 21 -p cbr -e 1000 -c 2 -i 104 -a 2 -x {13.0 0.12 4 ------- null}
+ -t 0.195536 -s 13 -d 21 -p cbr -e 24 -c 2 -i 105 -a 2 -x {13.0 0.12 5 ------- null}
+ -t 0.195536 -s 14 -d 21 -p cbr -e 1000 -c 3 -i 106 -a 3 -x {14.0 0.13 4 ------- null}
+ -t 0.195536 -s 14 -d 21 -p cbr -e 24 -c 3 -i 107 -a 3 -x {14.0 0.13 5 ------- null}
+ -t 0.195536 -s 15 -d 21 -p cbr -e 1000 -c 1 -i 108 -a 1 -x {15.0 0.14 4 ------- null}
+ -t 0.195536 -s 15 -d 21 -p cbr -e 24 -c 1 -i 109 -a 1 -x {15.0 0.14 5 ------- null}
+ -t 0.195536 -s 16 -d 21 -p cbr -e 1000 -c 2 -i 110 -a 2 -x {16.0 0.15 4 ------- null}
+ -t 0.195536 -s 16 -d 21 -p cbr -e 24 -c 2 -i 111 -a 2 -x {16.0 0.15 5 ------- null}
+ -t 0.195536 -s 17 -d 21 -p cbr -e 1000 -c 3 -i 112 -a 3 -x {17.0 0.16 4 ------- null}
+ -t 0.195536 -s 17 -d 21 -p cbr -e 24 -c 3 -i 113 -a 3 -x {17.0 0.16 5 ------- null}
+ -t 0.195536 -s 18 -d 21 -p cbr -e 1000 -c 1 -i 114 -a 1 -x {18.0 0.17 4 ------- null}
+ -t 0.195536 -s 18 -d 21 -p cbr -e 24 -c 1 -i 115 -a 1 -x {18.0 0.17 5 ------- null}
+ -t 0.195536 -s 19 -d 21 -p cbr -e 1000 -c 2 -i 116 -a 2 -x {19.0 0.18 4 ------- null}
+ -t 0.195536 -s 19 -d 21 -p cbr -e 24 -c 2 -i 117 -a 2 -x {19.0 0.18 5 ------- null}
+ -t 0.195536 -s 20 -d 21 -p cbr -e 1000 -c 3 -i 118 -a 3 -x {20.0 0.19 4 ------- null}
+ -t 0.195536 -s 20 -d 21 -p cbr -e 24 -c 3 -i 119 -a 3 -x {20.0 0.19 5 ------- null}
r -t 0.196812 -s 21 -d 0 -p cbr -e 1000 -c 1 -i 22 -a 1 -x {12.0 0.11 0 ------- null}
h -t 0.198304 -s 1 -d 21 -p cbr -e 1000 -c 2 -i 120 -a 2 -x {1.0 0.0 6 ------- null}
h -t 0.198304 -s 1 -d 21 -p cbr -e 24 -c 2 -i 121 -a 2 -x {1.0 0.0 7 ------- null}
h -t 0.198304 -s 2 -d 21 -p cbr -e 1000 -c 3 -i 122 -a 3 -x {2.0 0.1 6 ------- null}
h -t 0.198304 -s 2 -d 21 -p cbr -e 24 -c 3 -i 123 -a 3 -x {2.0 0.1 7 ------- null}
h -t 0.198304 -s 3 -d 21 -p cbr -e 1000 -c 1 -i 124 -a 1 -x {3.0 0.2 6 ------- null}
h -t 0.198304 -s 3 -d 21 -p cbr -e 24 -c 1 -i 125 -a 1 -x {3.0 0.2 7 ------- null}
h -t 0.198304 -s 4 -d 21 -p cbr -e 1000 -c 2 -i 126 -a 2 -x {4.0 0.3 6 ------- null}
h -t 0.198304 -s 4 -d 21 -p cbr -e 24 -c 2 -i 127 -a 2 -x {4.0 0.3 7 ------- null}
h -t 0.198304 -s 5 -d 21 -p cbr -e 1000 -c 3 -i 128 -a 3 -x {5.0 0.4 6 ------- null}
h -t 0.198304 -s 5 -d 21 -p cbr -e 24 -c 3 -i 129 -a 3 -x {5.0 0.4 7 ------- null}
h -t 0.198304 -s 6 -d 21 -p cbr -e 1000 -c 1 -i 130 -a 1 -x {6.0 0.5 6 ------- null}
h -t 0.198304 -s 6 -d 21 -p cbr -e 24 -c 1 -i 131 -a 1 -x {6.0 0.5 7 ------- null}
h -t 0.198304 -s 7 -d 21 -p cbr -e 1000 -c 2 -i 132 -a 2 -x {7.0 0.6 6 ------- null}
h -t 0.198304 -s 7 -d 21 -p cbr -e 24 -c 2 -i 133 -a 2 -x {7.0 0.6 7 ------- null}
h -t 0.198304 -s 8 -d 21 -p cbr -e 1000 -c 3 -i 134 -a 3 -x {8.0 0.7 6 ------- null}
h -t 0.198304 -s 8 -d 21 -p cbr -e 24 -c 3 -i 135 -a 3 -x {8.0 0.7 7 ------- null}
h -t 0.198304 -s 9 -d 21 -p cbr -e 1000 -c 1 -i 136 -a 1 -x {9.0 0.8 6 ------- null}
h -t 0.198304 -s 9 -d 21 -p cbr -e 24 -c 1 -i 137 -a 1 -x {9.0 0.8 7 ------- null}
h -t 0.198304 -s 10 -d 21 -p cbr -e 1000 -c 2 -i 138 -a 2 -x {10.0 0.9 6 ------- null}
h -t 0.198304 -s 10 -d 21 -p cbr -e 24 -c 2 -i 139 -a 2 -x {10.0 0.9 7 ------- null}
h -t 0.198304 -s 11 -d 21 -p cbr -e 1000 -c 3 -i 140 -a 3 -x {11.0 0.10 6 ------- null}
h -t 0.198304 -s 11 -d 21 -p cbr -e 24 -c 3 -i 141 -a 3 -x {11.0 0.10 7 ------- null}
h -t 0.198304 -s 12 -d 21 -p cbr -e 1000 -c 1 -i 142 -a 1 -x {12.0 0.11 6 ------- null}
h -t 0.198304 -s 12 -d 21 -p cbr -e 24 -c 1 -i 143 -a 1 -x {12.0 0.11 7 ------- null}
h -t 0.198304 -s 13 -d 21 -p cbr -e 1000 -c 2 -i 144 -a 2 -x {13.0 0.12 6 ------- null}
h -t 0.198304 -s 13 -d 21 -p cbr -e 24 -c 2 -i 145 -a 2 -x {13.0 0.12 7 ------- null}
h -t 0.198304 -s 14 -d 21 -p cbr -e 1000 -c 3 -i 146 -a 3 -x {14.0 0.13 6 ------- null}
h -t 0.198304 -s 14 -d 21 -p cbr -e 24 -c 3 -i 147 -a 3 -x {14.0 0.13 7 ------- null}
h -t 0.198304 -s 15 -d 21 -p cbr -e 1000 -c 1 -i 148 -a 1 -x {15.0 0.14 6 ------- null}
h -t 0.198304 -s 15 -d 21 -p cbr -e 24 -c 1 -i 149 -a 1 -x {15.0 0.14 7 ------- null}