h 0.1 1 21 cbr 1000 ------- 2 1.0 0.0 0 0
h 0.1 1 21 cbr 24 ------- 2 1.0 0.0 1 1
h 0.1 2 21 cbr 1000 ------- 3 2.0 0.1 0 2
h 0.1 2 21 cbr 24 ------- 3 2.0 0.1 1 3
h 0.1 3 21 cbr 1000 ------- 1 3.0 0.2 0 4
h 0.1 3 21 cbr 24 ------- 1 3.0 0.2 1 5
h 0.1 4 21 cbr 1000 ------- 2 4.0 0.3 0 6
h 0.1 4 21 cbr 24 ------- 2 4.0 0.3 1 7
h 0.1 5 21 cbr 1000 ------- 3 5.0 0.4 0 8
h 0.1 5 21 cbr 24 ------- 3 5.0 0.4 1 9
h 0.1 6 21 cbr 1000 ------- 1 6.0 0.5 0 10
h 0.1 6 21 cbr 24 ------- 1 6.0 0.5 1 11
h 0.1 7 21 cbr 1000 ------- 2 7.0 0.6 0 12
h 0.1 7 21 cbr 24 ------- 2 7.0 0.6 1 13
h 0.1 8 21 cbr 1000 ------- 3 8.0 0.7 0 14
h 0.1 8 21 cbr 24 ------- 3 8.0 0.7 1 15
h 0.1 9 21 cbr 1000 ------- 1 9.0 0.8 0 16
h 0.1 9 21 cbr 24 ------- 1 9.0 0.8 1 17
h 0.1 10 21 cbr 1000 ------- 2 10.0 0.9 0 18
h 0.1 10 21 cbr 24 ------- 2 10.0 0.9 1 19
h 0.1 11 21 cbr 1000 ------- 3 11.0 0.10 0 20
h 0.1 11 21 cbr 24 ------- 3 11.0 0.10 1 21
h 0.1 12 21 cbr 1000 ------- 1 12.0 0.11 0 22
h 0.1 12 21 cbr 24 ------- 1 12.0 0.11 1 23
h 0.1 13 21 cbr 1000 ------- 2 13.0 0.12 0 24
h 0.1 13 21 cbr 24 ------- 2 13.0 0.12 1 25
h 0.1 14 21 cbr 1000 ------- 3 14.0 0.13 0 26
h 0.1 14 21 cbr 24 ------- 3 14.0 0.13 1 27
h 0.1 15 21 cbr 1000 ------- 1 15.0 0.14 0 28
h 0.1 15 21 cbr 24 ------- 1 15.0 0.14 1 29
h 0.1 16 21 cbr 1000 ------- 2 16.0 0.15 0 30
h 0.1 16 21 cbr 24 ------- 2 16.0 0.15 1 31
h 0.1 17 21 cbr 1000 ------- 3 17.0 0.16 0 32
h 0.1 17 21 cbr 24 ------- 3 17.0 0.16 1 33
h 0.1 18 21 cbr 1000 ------- 1 18.0 0.17 0 34
h 0.1 18 21 cbr 24 ------- 1 18.0 0.17 1 35
h 0.1 19 21 cbr 1000 ------- 2 19.0 0.18 0 36
h 0.1 19 21 cbr 24 ------- 2 19.0 0.18 1 37
h 0.1 20 21 cbr 1000 ------- 3 20.0 0.19 0 38
h 0.1 20 21 cbr 24 ------- 3 20.0 0.19 1 39
+ 0.13 1 21 cbr 1000 ------- 2 1.0 0.0 0 0
- 0.13 1 21 cbr 1000 ------- 2 1.0 0.0 0 0
+ 0.13 1 21 cbr 24 ------- 2 1.0 0.0 1 1
+ 0.13 2 21 cbr 1000 ------- 3 2.0 0.1 0 2
- 0.13 2 21 cbr 1000 ------- 3 2.0 0.1 0 2
+ 0.13 2 21 cbr 24 ------- 3 2.0 0.1 1 3
+ 0.13 3 21 cbr 1000 ------- 1 3.0 0.2 0 4
- 0.13 3 21 cbr 1000 ------- 1 3.0 0.2 0 4
+ 0.13 3 21 cbr 24 ------- 1 3.0 0.2 1 5
+ 0.13 4 21 cbr 1000 ------- 2 4.0 0.3 0 6
- 0.13 4 21 cbr 1000 ------- 2 4.0 0.3 0 6
+ 0.13 4 21 cbr 24 ------- 2 4.0 0.3 1 7
+ 0.13 5 21 cbr 1000 ------- 3 5.0 0.4 0 8
- 0.13 5 21 cbr 1000 ------- 3 5.0 0.4 0 8
+ 0.13 5 21 cbr 24 ------- 3 5.0 0.4 1 9
+ 0.13 6 21 cbr 1000 ------- 1 6.0 0.5 0 10
- 0.13 6 21 cbr 1000 ------- 1 6.0 0.5 0 10
+ 0.13 6 21 cbr 24 ------- 1 6.0 0.5 1 11
+ 0.13 7 21 cbr 1000 ------- 2 7.0 0.6 0 12
- 0.13 7 21 cbr 1000 ------- 2 7.0 0.6 0 12
+ 0.13 7 21 cbr 24 ------- 2 7.0 0.6 1 13
+ 0.13 8 21 cbr 1000 ------- 3 8.0 0.7 0 14
- 0.13 8 21 cbr 1000 ------- 3 8.0 0.7 0 14
+ 0.13 8 21 cbr 24 ------- 3 8.0 0.7 1 15
+ 0.13 9 21 cbr 1000 ------- 1 9.0 0.8 0 16
- 0.13 9 21 cbr 1000 ------- 1 9.0 0.8 0 16
+ 0.13 9 21 cbr 24 ------- 1 9.0 0.8 1 17
+ 0.13 10 21 cbr 1000 ------- 2 10.0 0.9 0 18
- 0.13 10 21 cbr 1000 ------- 2 10.0 0.9 0 18
+ 0.13 10 21 cbr 24 ------- 2 10.0 0.9 1 19
+ 0.13 11 21 cbr 1000 ------- 3 11.0 0.10 0 20
- 0.13 11 21 cbr 1000 ------- 3 11.0 0.10 0 20
+ 0.13 11 21 cbr 24 ------- 3 11.0 0.10 1 21
+ 0.13 12 21 cbr 1000 ------- 1 12.0 0.11 0 22
- 0.13 12 21 cbr 1000 ------- 1 12.0 0.11 0 22
+ 0.13 12 21 cbr 24 ------- 1 12.0 0.11 1 23
+ 0.13 13 21 cbr 1000 ------- 2 13.0 0.12 0 24
- 0.13 13 21 cbr 1000 ------- 2 13.0 0.12 0 24
+ 0.13 13 21 cbr 24 ------- 2 13.0 0.12 1 25
+ 0.13 14 21 cbr 1000 ------- 3 14.0 0.13 0 26
- 0.13 14 21 cbr 1000 ------- 3 14.0 0.13 0 26
+ 0.13 14 21 cbr 24 ------- 3 14.0 0.13 1 27
+ 0.13 15 21 cbr 1000 ------- 1 15.0 0.14 0 28
- 0.13 15 21 cbr 1000 ------- 1 15.0 0.14 0 28
+ 0.13 15 21 cbr 24 ------- 1 15.0 0.14 1 29
+ 0.13 16 21 cbr 1000 ------- 2 16.0 0.15 0 30
- 0.13 16 21 cbr 1000 ------- 2 16.0 0.15 0 30
+ 0.13 16 21 cbr 24 ------- 2 16.0 0.15 1 31
+ 0.13 17 21 cbr 1000 ------- 3 17.0 0.16 0 32
- 0.13 17 21 cbr 1000 ------- 3 17.0 0.16 0 32
+ 0.13 17 21 cbr 24 ------- 3 17.0 0.16 1 33
+ 0.13 18 21 cbr 1000 ------- 1 18.0 0.17 0 34
- 0.13 18 21 cbr 1000 ------- 1 18.0 0.17 0 34
+ 0.13 18 21 cbr 24 ------- 1 18.0 0.17 1 35
+ 0.13 19 21 cbr 1000 ------- 2 19.0 0.18 0 36
- 0.13 19 21 cbr 1000 ------- 2 19.0 0.18 0 36
+ 0.13 19 21 cbr 24 ------- 2 19.0 0.18 1 37
+ 0.13 20 21 cbr 1000 ------- 3 20.0 0.19 0 38
- 0.13 20 21 cbr 1000 ------- 3 20.0 0.19 0 38
+ 0.13 20 21 cbr 24 ------- 3 20.0 0.19 1 39
h 0.132768 1 21 cbr 1000 ------- 2 1.0 0.0 2 40
h 0.132768 1 21 cbr 24 ------- 2 1.0 0.0 3 41
h 0.132768 2 21 cbr 1000 ------- 3 2.0 0.1 2 42
h 0.132768 2 21 cbr 24 ------- 3 2.0 0.1 3 43
h 0.132768 3 21 cbr 1000 ------- 1 3.0 0.2 2 44
h 0.132768 3 21 cbr 24 ------- 1 3.0 0.2 3 45
h 0.132768 4 21 cbr 1000 ------- 2 4.0 0.3 2 46
h 0.132768 4 21 cbr 24 ------- 2 4.0 0.3 3 47
h 0.132768 5 21 cbr 1000 ------- 3 5.0 0.4 2 48
h 0.132768 5 21 cbr 24 ------- 3 5.0 0.4 3 49
h 0.132768 6 21 cbr 1000 ------- 1 6.0 0.5 2 50
h 0.132768 6 21 cbr 24 ------- 1 6.0 0.5 3 51
h 0.132768 7 21 cbr 1000 ------- 2 7.0 0.6 2 52
h 0.132768 7 21 cbr 24 ------- 2 7.0 0.6 3 53
h 0.132768 8 21 cbr 1000 ------- 3 8.0 0.7 2 54
h 0.132768 8 21 cbr 24 ------- 3 8.0 0.7 3 55
h 0.132768 9 21 cbr 1000 ------- 1 9.0 0.8 2 56
h 0.132768 9 21 cbr 24 ------- 1 9.0 0.8 3 57
h 0.132768 10 21 cbr 1000 ------- 2 10.0 0.9 2 58
h 0.132768 10 21 cbr 24 ------- 2 10.0 0.9 3 59
h 0.132768 11 21 cbr 1000 ------- 3 11.0 0.10 2 60
h 0.132768 11 21 cbr 24 ------- 3 11.0 0.10 3 61
h 0.132768 12 21 cbr 1000 ------- 1 12.0 0.11 2 62
h 0.132768 12 21 cbr 24 ------- 1 12.0 0.11 3 63
h 0.132768 13 21 cbr 1000 ------- 2 13.0 0.12 2 64
h 0.132768 13 21 cbr 24 ------- 2 13.0 0.12 3 65
h 0.132768 14 21 cbr 1000 ------- 3 14.0 0.13 2 66
h 0.132768 14 21 cbr 24 ------- 3 14.0 0.13 3 67
h 0.132768 15 21 cbr 1000 ------- 1 15.0 0.14 2 68
h 0.132768 15 21 cbr 24 ------- 1 15.0 0.14 3 69
h 0.132768 16 21 cbr 1000 ------- 2 16.0 0.15 2 70
h 0.132768 16 21 cbr 24 ------- 2 16.0 0.15 3 71
h 0.132768 17 21 cbr 1000 ------- 3 17.0 0.16 2 72
h 0.132768 17 21 cbr 24 ------- 3 17.0 0.16 3 73
h 0.132768 18 21 cbr 1000 ------- 1 18.0 0.17 2 74
h 0.132768 18 21 cbr 24 ------- 1 18.0 0.17 3 75
h 0.132768 19 21 cbr 1000 ------- 2 19.0 0.18 2 76
h 0.132768 19 21 cbr 24 ------- 2 19.0 0.18 3 77
h 0.132768 20 21 cbr 1000 ------- 3 20.0 0.19 2 78
h 0.132768 20 21 cbr 24 ------- 3 20.0 0.19 3 79
- 0.138472 20 21 cbr 24 ------- 3 20.0 0.19 1 39
- 0.147836 7 21 cbr 24 ------- 2 7.0 0.6 1 13
- 0.157948 9 21 cbr 24 ------- 1 9.0 0.8 1 17
+ 0.162768 1 21 cbr 1000 ------- 2 1.0 0.0 2 40
+ 0.162768 1 21 cbr 24 ------- 2 1.0 0.0 3 41
+ 0.162768 2 21 cbr 1000 ------- 3 2.0 0.1 2 42
+ 0.162768 2 21 cbr 24 ------- 3 2.0 0.1 3 43
+ 0.162768 3 21 cbr 1000 ------- 1 3.0 0.2 2 44
+ 0.162768 3 21 cbr 24 ------- 1 3.0 0.2 3 45
+ 0.162768 4 21 cbr 1000 ------- 2 4.0 0.3 2 46
+ 0.162768 4 21 cbr 24 ------- 2 4.0 0.3 3 47
+ 0.162768 5 21 cbr 1000 ------- 3 5.0 0.4 2 48
+ 0.162768 5 21 cbr 24 ------- 3 5.0 0.4 3 49
+ 0.162768 6 21 cbr 1000 ------- 1 6.0 0.5 2 50
+ 0.162768 6 21 cbr 24 ------- 1 6.0 0.5 3 51
+ 0.162768 7 21 cbr 1000 ------- 2 7.0 0.6 2 52
- 0.162768 7 21 cbr 1000 ------- 2 7.0 0.6 2 52
+ 0.162768 7 21 cbr 24 ------- 2 7.0 0.6 3 53
+ 0.162768 8 21 cbr 1000 ------- 3 8.0 0.7 2 54
+ 0.162768 8 21 cbr 24 ------- 3 8.0 0.7 3 55
+ 0.162768 9 21 cbr 1000 ------- 1 9.0 0.8 2 56
- 0.162768 9 21 cbr 1000 ------- 1 9.0 0.8 2 56
+ 0.162768 9 21 cbr 24 ------- 1 9.0 0.8 3 57
+ 0.162768 10 21 cbr 1000 ------- 2 10.0 0.9 2 58
+ 0.162768 10 21 cbr 24 ------- 2 10.0 0.9 3 59
+ 0.162768 11 21 cbr 1000 ------- 3 11.0 0.10 2 60
+ 0.162768 11 21 cbr 24 ------- 3 11.0 0.10 3 61
+ 0.162768 12 21 cbr 1000 ------- 1 12.0 0.11 2 62
+ 0.162768 12 21 cbr 24 ------- 1 12.0 0.11 3 63
+ 0.162768 13 21 cbr 1000 ------- 2 13.0 0.12 2 64
+ 0.162768 13 21 cbr 24 ------- 2 13.0 0.12 3 65
+ 0.162768 14 21 cbr 1000 ------- 3 14.0 0.13 2 66
+ 0.162768 14 21 cbr 24 ------- 3 14.0 0.13 3 67
+ 0.162768 15 21 cbr 1000 ------- 1 15.0 0.14 2 68
+ 0.162768 15 21 cbr 24 ------- 1 15.0 0.14 3 69
+ 0.162768 16 21 cbr 1000 ------- 2 16.0 0.15 2 70
+ 0.162768 16 21 cbr 24 ------- 2 16.0 0.15 3 71
+ 0.162768 17 21 cbr 1000 ------- 3 17.0 0.16 2 72
+ 0.162768 17 21 cbr 24 ------- 3 17.0 0.16 3 73
+ 0.162768 18 21 cbr 1000 ------- 1 18.0 0.17 2 74
+ 0.162768 18 21 cbr 24 ------- 1 18.0 0.17 3 75
+ 0.162768 19 21 cbr 1000 ------- 2 19.0 0.18 2 76
+ 0.162768 19 21 cbr 24 ------- 2 19.0 0.18 3 77
+ 0.162768 20 21 cbr 1000 ------- 3 20.0 0.19 2 78
+ 0.162768 20 21 cbr 24 ------- 3 20.0 0.19 3 79
h 0.165536 1 21 cbr 1000 ------- 2 1.0 0.0 4 80
h 0.165536 1 21 cbr 24 ------- 2 1.0 0.0 5 81
h 0.165536 2 21 cbr 1000 ------- 3 2.0 0.1 4 82
h 0.165536 2 21 cbr 24 ------- 3 2.0 0.1 5 83
h 0.165536 3 21 cbr 1000 ------- 1 3.0 0.2 4 84
h 0.165536 3 21 cbr 24 ------- 1 3.0 0.2 5 85
h 0.165536 4 21 cbr 1000 ------- 2 4.0 0.3 4 86
h 0.165536 4 21 cbr 24 ------- 2 4.0 0.3 5 87
h 0.165536 5 21 cbr 1000 ------- 3 5.0 0.4 4 88
h 0.165536 5 21 cbr 24 ------- 3 5.0 0.4 5 89
h 0.165536 6 21 cbr 1000 ------- 1 6.0 0.5 4 90
h 0.165536 6 21 cbr 24 ------- 1 6.0 0.5 5 91
h 0.165536 7 21 cbr 1000 ------- 2 7.0 0.6 4 92
h 0.165536 7 21 cbr 24 ------- 2 7.0 0.6 5 93
h 0.165536 8 21 cbr 1000 ------- 3 8.0 0.7 4 94
h 0.165536 8 21 cbr 24 ------- 3 8.0 0.7 5 95
h 0.165536 9 21 cbr 1000 ------- 1 9.0 0.8 4 96
h 0.165536 9 21 cbr 24 ------- 1 9.0 0.8 5 97
h 0.165536 10 21 cbr 1000 ------- 2 10.0 0.9 4 98
h 0.165536 10 21 cbr 24 ------- 2 10.0 0.9 5 99
h 0.165536 11 21 cbr 1000 ------- 3 11.0 0.10 4 100
h 0.165536 11 21 cbr 24 ------- 3 11.0 0.10 5 101
h 0.165536 12 21 cbr 1000 ------- 1 12.0 0.11 4 102
h 0.165536 12 21 cbr 24 ------- 1 12.0 0.11 5 103
h 0.165536 13 21 cbr 1000 ------- 2 13.0 0.12 4 104
h 0.165536 13 21 cbr 24 ------- 2 13.0 0.12 5 105
h 0.165536 14 21 cbr 1000 ------- 3 14.0 0.13 4 106
h 0.165536 14 21 cbr 24 ------- 3 14.0 0.13 5 107
h 0.165536 15 21 cbr 1000 ------- 1 15.0 0.14 4 108
h 0.165536 15 21 cbr 24 ------- 1 15.0 0.14 5 109
h 0.165536 16 21 cbr 1000 ------- 2 16.0 0.15 4 110
h 0.165536 16 21 cbr 24 ------- 2 16.0 0.15 5 111
h 0.165536 17 21 cbr 1000 ------- 3 17.0 0.16 4 112
h 0.165536 17 21 cbr 24 ------- 3 17.0 0.16 5 113
h 0.165536 18 21 cbr 1000 ------- 1 18.0 0.17 4 114
h 0.165536 18 21 cbr 24 ------- 1 18.0 0.17 5 115
h 0.165536 19 21 cbr 1000 ------- 2 19.0 0.18 4 116
h 0.165536 19 21 cbr 24 ------- 2 19.0 0.18 5 117
h 0.165536 20 21 cbr 1000 ------- 3 20.0 0.19 4 118
h 0.165536 20 21 cbr 24 ------- 3 20.0 0.19 5 119
- 0.166904 12 21 cbr 24 ------- 1 12.0 0.11 1 23
r 0.16838 21 0 cbr 1000 ------- 3 20.0 0.19 0 38
- 0.17538 7 21 cbr 24 ------- 2 7.0 0.6 3 53
r 0.177744 21 0 cbr 1000 ------- 2 7.0 0.6 0 12
r 0.179 21 0 cbr 24 ------- 2 7.0 0.6 1 13
- 0.184232 9 21 cbr 24 ------- 1 9.0 0.8 3 57
r 0.187856 21 0 cbr 1000 ------- 1 9.0 0.8 0 16
r 0.1886 21 0 cbr 24 ------- 1 9.0 0.8 1 17
- 0.193936 13 21 cbr 24 ------- 2 13.0 0.12 1 25
- 0.195192 13 21 cbr 1000 ------- 2 13.0 0.12 2 64
+ 0.195536 1 21 cbr 1000 ------- 2 1.0 0.0 4 80
+ 0.195536 1 21 cbr 24 ------- 2 1.0 0.0 5 81
+ 0.195536 2 21 cbr 1000 ------- 3 2.0 0.1 4 82
+ 0.195536 2 21 cbr 24 ------- 3 2.0 0.1 5 83
+ 0.195536 3 21 cbr 1000 ------- 1 3.0 0.2 4 84
+ 0.195536 3 21 cbr 24 ------- 1 3.0 0.2 5 85
+ 0.195536 4 21 cbr 1000 ------- 2 4.0 0.3 4 86
+ 0.195536 4 21 cbr 24 ------- 2 4.0 0.3 5 87
+ 0.195536 5 21 cbr 1000 ------- 3 5.0 0.4 4 88
+ 0.195536 5 21 cbr 24 ------- 3 5.0 0.4 5 89
+ 0.195536 6 21 cbr 1000 ------- 1 6.0 0.5 4 90
+ 0.195536 6 21 cbr 24 ------- 1 6.0 0.5 5 91
+ 0.195536 7 21 cbr 1000 ------- 2 7.0 0.6 4 92
+ 0.195536 7 21 cbr 24 ------- 2 7.0 0.6 5 93
+ 0.195536 8 21 cbr 1000 ------- 3 8.0 0.7 4 94
+ 0.195536 8 21 cbr 24 ------- 3 8.0 0.7 5 95
+ 0.195536 9 21 cbr 1000 ------- 1 9.0 0.8 4 96
- 0.195536 9 21 cbr 1000 ------- 1 9.0 0.8 4 96
+ 0.195536 9 21 cbr 24 ------- 1 9.0 0.8 5 97
+ 0.195536 10 21 cbr 1000 ------- 2 10.0 0.9 4 98
+ 0.195536 10 21 cbr 24 ------- 2 10.0 0.9 5 99
+ 0.195536 11 21 cbr 1000 ------- 3 11.0 0.10 4 100
+ 0.195536 11 21 cbr 24 ------- 3 11.0 0.10 5 101
+ 0.195536 12 21 cbr 1000 ------- 1 12.0 0.11 4 102
+ 0.195536 12 21 cbr 24 ------- 1 12.0 0.11 5 103
+ 0.195536 13 21 cbr 1000 ------- 2 13.0 0.12 4 104
+ 0.195536 13 21 cbr 24 ------- 2 13.0 0.12 5 105
+ 0.195536 14 21 cbr 1000 ------- 3 14.0 0.13 4 106
+ 0.195536 14 21 cbr 24 ------- 3 14.0 0.13 5 107
+ 0.195536 15 21 cbr 1000 ------- 1 15.0 0.14 4 108
+ 0.195536 15 21 cbr 24 ------- 1 15.0 0.14 5 109
+ 0.195536 16 21 cbr 1000 ------- 2 16.0 0.15 4 110
+ 0.195536 16 21 cbr 24 ------- 2 16.0 0.15 5 111
+ 0.195536 17 21 cbr 1000 ------- 3 17.0 0.16 4 112
+ 0.195536 17 21 cbr 24 ------- 3 17.0 0.16 5 113
+ 0.195536 18 21 cbr 1000 ------- 1 18.0 0.17 4 114
+ 0.195536 18 21 cbr 24 ------- 1 18.0 0.17 5 115
+ 0.195536 19 21 cbr 1000 ------- 2 19.0 0.18 4 116
+ 0.195536 19 21 cbr 24 ------- 2 19.0 0.18 5 117
+ 0.195536 20 21 cbr 1000 ------- 3 20.0 0.19 4 118
+ 0.195536 20 21 cbr 24 ------- 3 20.0 0.19 5 119
r 0.196812 21 0 cbr 1000 ------- 1 12.0 0.11 0 22
h 0.198304 1 21 cbr 1000 ------- 2 1.0 0.0 6 120
h 0.198304 1 21 cbr 24 ------- 2 1.0 0.0 7 121
h 0.198304 2 21 cbr 1000 ------- 3 2.0 0.1 6 122
h 0.198304 2 21 cbr 24 ------- 3 2.0 0.1 7 123
h 0.198304 3 21 cbr 1000 ------- 1 3.0 0.2 6 124
h 0.198304 3 21 cbr 24 ------- 1 3.0 0.2 7 125
h 0.198304 4 21 cbr 1000 ------- 2 4.0 0.3 6 126
h 0.198304 4 21 cbr 24 ------- 2 4.0 0.3 7 127
h 0.198304 5 21 cbr 1000 ------- 3 5.0 0.4 6 128
h 0.198304 5 21 cbr 24 ------- 3 5.0 0.4 7 129
h 0.198304 6 21 cbr 1000 ------- 1 6.0 0.5 6 130
h 0.198304 6 21 cbr 24 ------- 1 6.0 0.5 7 131
h 0.198304 7 21 cbr 1000 ------- 2 7.0 0.6 6 132
h 0.198304 7 21 cbr 24 ------- 2 7.0 0.6 7 133
h 0.198304 8 21 cbr 1000 ------- 3 8.0 0.7 6 134
h 0.198304 8 21 cbr 24 ------- 3 8.0 0.7 7 135
h 0.198304 9 21 cbr 1000 ------- 1 9.0 0.8 6 136
h 0.198304 9 21 cbr 24 ------- 1 9.0 0.8 7 137
h 0.198304 10 21 cbr 1000 ------- 2 10.0 0.9 6 138
h 0.198304 10 21 cbr 24 ------- 2 10.0 0.9 7 139
h 0.198304 11 21 cbr 1000 ------- 3 11.0 0.10 6 140
h 0.198304 11 21 cbr 24 ------- 3 11.0 0.10 7 141
h 0.198304 12 21 cbr 1000 ------- 1 12.0 0.11 6 142
h 0.198304 12 21 cbr 24 ------- 1 12.0 0.11 7 143
h 0.198304 13 21 cbr 1000 ------- 2 13.0 0.12 6 144
h 0.198304 13 21 cbr 24 ------- 2 13.0 0.12 7 145
h 0.198304 14 21 cbr 1000 ------- 3 14.0 0.13 6 146
h 0.198304 14 21 cbr 24 ------- 3 14.0 0.13 7 147
h 0.198304 15 21 cbr 1000 ------- 1 15.0 0.14 6 148
h 0.198304 15 21 cbr 24 ------- 1 15.0 0.14 7 149
h 0.198304 16 21 cbr 1000 ------- 2 16.0 0.15 6 150
h 0.198304 16 21 cbr 24 ------- 2 16.0 0.15 7 151
h 0.198304 17 21 cbr 1000 ------- 3 17.0 0.16 6 152
h 0.198304 17 21 cbr 24 ------- 3 17.0 0.16 7 153
h 0.198304 18 21 cbr 1000 ------- 1 18.0 0.17 6 154
h 0.198304 18 21 cbr 24 ------- 1 18.0 0.17 7 155
h 0.198304 19 21 cbr 1000 ------- 2 19.0 0.18 6 156
h 0.198304 19 21 cbr 24 ------- 2 19.0 0.18 7 157
h 0.198304 20 21 cbr 1000 ------- 3 20.0 0.19 6 158
h 0.198304 20 21 cbr 24 ------- 3 20.0 0.19 7 159
- 0.2034 13 21 cbr 24 ------- 2 13.0 0.12 3 65
- 0.204784 13 21 cbr 1000 ------- 2 13.0 0.12 4 104
r 0.205288 21 0 cbr 1000 ------- 2 7.0 0.6 2 52
- 0.213128 13 21 cbr 24 ------- 2 13.0 0.12 5 105
r 0.21414 21 0 cbr 1000 ------- 1 9.0 0.8 2 56
r 0.214884 21 0 cbr 24 ------- 1 9.0 0.8 3 57
- 0.221756 5 21 cbr 24 ------- 3 5.0 0.4 1 9
- 0.223652 5 21 cbr 1000 ------- 3 5.0 0.4 2 48
r 0.223844 21 0 cbr 1000 ------- 2 13.0 0.12 0 24
r 0.2251 21 0 cbr 24 ------- 2 13.0 0.12 1 25
+ 0.228304 1 21 cbr 1000 ------- 2 1.0 0.0 6 120
+ 0.228304 1 21 cbr 24 ------- 2 1.0 0.0 7 121
+ 0.228304 2 21 cbr 1000 ------- 3 2.0 0.1 6 122
+ 0.228304 2 21 cbr 24 ------- 3 2.0 0.1 7 123
+ 0.228304 3 21 cbr 1000 ------- 1 3.0 0.2 6 124
+ 0.228304 3 21 cbr 24 ------- 1 3.0 0.2 7 125
+ 0.228304 4 21 cbr 1000 ------- 2 4.0 0.3 6 126
+ 0.228304 4 21 cbr 24 ------- 2 4.0 0.3 7 127
+ 0.228304 5 21 cbr 1000 ------- 3 5.0 0.4 6 128
+ 0.228304 5 21 cbr 24 ------- 3 5.0 0.4 7 129
+ 0.228304 6 21 cbr 1000 ------- 1 6.0 0.5 6 130
+ 0.228304 6 21 cbr 24 ------- 1 6.0 0.5 7 131
+ 0.228304 7 21 cbr 1000 ------- 2 7.0 0.6 6 132
+ 0.228304 7 21 cbr 24 ------- 2 7.0 0.6 7 133
+ 0.228304 8 21 cbr 1000 ------- 3 8.0 0.7 6 134
+ 0.228304 8 21 cbr 24 ------- 3 8.0 0.7 7 135
+ 0.228304 9 21 cbr 1000 ------- 1 9.0 0.8 6 136
+ 0.228304 9 21 cbr 24 ------- 1 9.0 0.8 7 137
+ 0.228304 10 21 cbr 1000 ------- 2 10.0 0.9 6 138
+ 0.228304 10 21 cbr 24 ------- 2 10.0 0.9 7 139
+ 0.228304 11 21 cbr 1000 ------- 3 11.0 0.10 6 140
+ 0.228304 11 21 cbr 24 ------- 3 11.0 0.10 7 141
+ 0.228304 12 21 cbr 1000 ------- 1 12.0 0.11 6 142
+ 0.228304 12 21 cbr 24 ------- 1 12.0 0.11 7 143
+ 0.228304 13 21 cbr 1000 ------- 2 13.0 0.12 6 144
+ 0.228304 13 21 cbr 24 ------- 2 13.0 0.12 7 145
+ 0.228304 14 21 cbr 1000 ------- 3 14.0 0.13 6 146
+ 0.228304 14 21 cbr 24 ------- 3 14.0 0.13 7 147
+ 0.228304 15 21 cbr 1000 ------- 1 15.0 0.14 6 148
+ 0.228304 15 21 cbr 24 ------- 1 15.0 0.14 7 149
+ 0.228304 16 21 cbr 1000 ------- 2 16.0 0.15 6 150
+ 0.228304 16 21 cbr 24 ------- 2 16.0 0.15 7 151
+ 0.228304 17 21 cbr 1000 ------- 3 17.0 0.16 6 152
+ 0.228304 17 21 cbr 24 ------- 3 17.0 0.16 7 153
+ 0.228304 18 21 cbr 1000 ------- 1 18.0 0.17 6 154
+ 0.228304 18 21 cbr 24 ------- 1 18.0 0.17 7 155
+ 0.228304 19 21 cbr 1000 ------- 2 19.0 0.18 6 156
+ 0.228304 19 21 cbr 24 ------- 2 19.0 0.18 7 157
+ 0.228304 20 21 cbr 1000 ------- 3 20.0 0.19 6 158
+ 0.228304 20 21 cbr 24 ------- 3 20.0 0.19 7 159
h 0.231072 1 21 cbr 1000 ------- 2 1.0 0.0 8 160
h 0.231072 1 21 cbr 24 ------- 2 1.0 0.0 9 161
h 0.231072 2 21 cbr 1000 ------- 3 2.0 0.1 8 162
h 0.231072 2 21 cbr 24 ------- 3 2.0 0.1 9 163
h 0.231072 3 21 cbr 1000 ------- 1 3.0 0.2 8 164
h 0.231072 3 21 cbr 24 ------- 1 3.0 0.2 9 165
h 0.231072 4 21 cbr 1000 ------- 2 4.0 0.3 8 166
h 0.231072 4 21 cbr 24 ------- 2 4.0 0.3 9 167
h 0.231072 5 21 cbr 1000 ------- 3 5.0 0.4 8 168
h 0.231072 5 21 cbr 24 ------- 3 5.0 0.4 9 169
h 0.231072 6 21 cbr 1000 ------- 1 6.0 0.5 8 170
h 0.231072 6 21 cbr 24 ------- 1 6.0 0.5 9 171
h 0.231072 7 21 cbr 1000 ------- 2 7.0 0.6 8 172
h 0.231072 7 21 cbr 24 ------- 2 7.0 0.6 9 173
h 0.231072 8 21 cbr 1000 ------- 3 8.0 0.7 8 174
h 0.231072 8 21 cbr 24 ------- 3 8.0 0.7 9 175
h 0.231072 9 21 cbr 1000 ------- 1 9.0 0.8 8 176
h 0.231072 9 21 cbr 24 ------- 1 9.0 0.8 9 177
h 0.231072 10 21 cbr 1000 ------- 2 10.0 0.9 8 178
h 0.231072 10 21 cbr 24 ------- 2 10.0 0.9 9 179
h 0.231072 11 21 cbr 1000 ------- 3 11.0 0.10 8 180
h 0.231072 11 21 cbr 24 ------- 3 11.0 0.10 9 181
h 0.231072 12 21 cbr 1000 ------- 1 12.0 0.11 8 182
h 0.231072 12 21 cbr 24 ------- 1 12.0 0.11 9 183
h 0.231072 13 21 cbr 1000 ------- 2 13.0 0.12 8 184
h 0.231072 13 21 cbr 24 ------- 2 13.0 0.12 9 185
h 0.231072 14 21 cbr 1000 ------- 3 14.0 0.13 8 186
h 0.231072 14 21 cbr 24 ------- 3 14.0 0.13 9 187
h 0.231072 15 21 cbr 1000 ------- 1 15.0 0.14 8 188
h 0.231072 15 21 cbr 24 ------- 1 15.0 0.14 9 189
h 0.231072 16 21 cbr 1000 ------- 2 16.0 0.15 8 190
h 0.231072 16 21 cbr 24 ------- 2 16.0 0.15 9 191
h 0.231072 17 21 cbr 1000 ------- 3 17.0 0.16 8 192
h 0.231072 17 21 cbr 24 ------- 3 17.0 0.16 9 193
h 0.231072 18 21 cbr 1000 ------- 1 18.0 0.17 8 194
h 0.231072 18 21 cbr 24 ------- 1 18.0 0.17 9 195
h 0.231072 19 21 cbr 1000 ------- 2 19.0 0.18 8 196
h 0.231072 19 21 cbr 24 ------- 2 19.0 0.18 9 197
h 0.231072 20 21 cbr 1000 ------- 3 20.0 0.19 8 198
h 0.231072 20 21 cbr 24 ------- 3 20.0 0.19 9 199
- 0.23186 5 21 cbr 24 ------- 3 5.0 0.4 3 49
- 0.233116 5 21 cbr 1000 ------- 3 5.0 0.4 4 88
r 0.233308 21 0 cbr 1000 ------- 2 13.0 0.12 2 64
r 0.234692 21 0 cbr 24 ------- 2 13.0 0.12 3 65
- 0.241948 14 21 cbr 24 ------- 3 14.0 0.13 1 27
r 0.243036 21 0 cbr 1000 ------- 2 13.0 0.12 4 104
- 0.243204 14 21 cbr 1000 ------- 3 14.0 0.13 2 66
- 0.251548 14 21 cbr 24 ------- 3 14.0 0.13 3 67
r 0.251664 21 0 cbr 1000 ------- 3 5.0 0.4 0 8
- 0.252804 14 21 cbr 1000 ------- 3 14.0 0.13 4 106
r 0.25356 21 0 cbr 24 ------- 3 5.0 0.4 1 9
+ 0.261072 1 21 cbr 1000 ------- 2 1.0 0.0 8 160
+ 0.261072 1 21 cbr 24 ------- 2 1.0 0.0 9 161
+ 0.261072 2 21 cbr 1000 ------- 3 2.0 0.1 8 162
+ 0.261072 2 21 cbr 24 ------- 3 2.0 0.1 9 163
+ 0.261072 3 21 cbr 1000 ------- 1 3.0 0.2 8 164
+ 0.261072 3 21 cbr 24 ------- 1 3.0 0.2 9 165
+ 0.261072 4 21 cbr 1000 ------- 2 4.0 0.3 8 166
+ 0.261072 4 21 cbr 24 ------- 2 4.0 0.3 9 167
+ 0.261072 5 21 cbr 1000 ------- 3 5.0 0.4 8 168
+ 0.261072 5 21 cbr 24 ------- 3 5.0 0.4 9 169
+ 0.261072 6 21 cbr 1000 ------- 1 6.0 0.5 8 170
+ 0.261072 6 21 cbr 24 ------- 1 6.0 0.5 9 171
+ 0.261072 7 21 cbr 1000 ------- 2 7.0 0.6 8 172
+ 0.261072 7 21 cbr 24 ------- 2 7.0 0.6 9 173
+ 0.261072 8 21 cbr 1000 ------- 3 8.0 0.7 8 174
+ 0.261072 8 21 cbr 24 ------- 3 8.0 0.7 9 175
+ 0.261072 9 21 cbr 1000 ------- 1 9.0 0.8 8 176
+ 0.261072 9 21 cbr 24 ------- 1 9.0 0.8 9 177
+ 0.261072 10 21 cbr 1000 ------- 2 10.0 0.9 8 178
+ 0.261072 10 21 cbr 24 ------- 2 10.0 0.9 9 179
+ 0.261072 11 21 cbr 1000 ------- 3 11.0 0.10 8 180
+ 0.261072 11 21 cbr 24 ------- 3 11.0 0.10 9 181
+ 0.261072 12 21 cbr 1000 ------- 1 12.0 0.11 8 182
+ 0.261072 12 21 cbr 24 ------- 1 12.0 0.11 9 183
+ 0.261072 13 21 cbr 1000 ------- 2 13.0 0.12 8 184
+ 0.261072 13 21 cbr 24 ------- 2 13.0 0.12 9 185
+ 0.261072 14 21 cbr 1000 ------- 3 14.0 0.13 8 186
+ 0.261072 14 21 cbr 24 ------- 3 14.0 0.13 9 187
+ 0.261072 15 21 cbr 1000 ------- 1 15.0 0.14 8 188
+ 0.261072 15 21 cbr 24 ------- 1 15.0 0.14 9 189
+ 0.261072 16 21 cbr 1000 ------- 2 16.0 0.15 8 190
+ 0.261072 16 21 cbr 24 ------- 2 16.0 0.15 9 191
+ 0.261072 17 21 cbr 1000 ------- 3 17.0 0.16 8 192
+ 0.261072 17 21 cbr 24 ------- 3 17.0 0.16 9 193
+ 0.261072 18 21 cbr 1000 ------- 1 18.0 0.17 8 194
+ 0.261072 18 21 cbr 24 ------- 1 18.0 0.17 9 195
+ 0.261072 19 21 cbr 1000 ------- 2 19.0 0.18 8 196
+ 0.261072 19 21 cbr 24 ------- 2 19.0 0.18 9 197
+ 0.261072 20 21 cbr 1000 ------- 3 20.0 0.19 8 198
+ 0.261072 20 21 cbr 24 ------- 3 20.0 0.19 9 199
- 0.261148 14 21 cbr 24 ------- 3 14.0 0.13 5 107
r 0.261768 21 0 cbr 1000 ------- 3 5.0 0.4 2 48
- 0.261892 14 21 cbr 1000 ------- 3 14.0 0.13 6 146
r 0.263024 21 0 cbr 24 ------- 3 5.0 0.4 3 49
h 0.26384 1 21 cbr 1000 ------- 2 1.0 0.0 10 200
h 0.26384 1 21 cbr 24 ------- 2 1.0 0.0 11 201
h 0.26384 2 21 cbr 1000 ------- 3 2.0 0.1 10 202
h 0.26384 2 21 cbr 24 ------- 3 2.0 0.1 11 203
h 0.26384 3 21 cbr 1000 ------- 1 3.0 0.2 10 204
h 0.26384 3 21 cbr 24 ------- 1 3.0 0.2 11 205
h 0.26384 4 21 cbr 1000 ------- 2 4.0 0.3 10 206
h 0.26384 4 21 cbr 24 ------- 2 4.0 0.3 11 207
h 0.26384 5 21 cbr 1000 ------- 3 5.0 0.4 10 208
h 0.26384 5 21 cbr 24 ------- 3 5.0 0.4 11 209
h 0.26384 6 21 cbr 1000 ------- 1 6.0 0.5 10 210
h 0.26384 6 21 cbr 24 ------- 1 6.0 0.5 11 211
h 0.26384 7 21 cbr 1000 ------- 2 7.0 0.6 10 212
h 0.26384 7 21 cbr 24 ------- 2 7.0 0.6 11 213
h 0.26384 8 21 cbr 1000 ------- 3 8.0 0.7 10 214
h 0.26384 8 21 cbr 24 ------- 3 8.0 0.7 11 215
h 0.26384 9 21 cbr 1000 ------- 1 9.0 0.8 10 216
h 0.26384 9 21 cbr 24 ------- 1 9.0 0.8 11 217
h 0.26384 10 21 cbr 1000 ------- 2 10.0 0.9 10 218
h 0.26384 10 21 cbr 24 ------- 2 10.0 0.9 11 219
h 0.26384 11 21 cbr 1000 ------- 3 11.0 0.10 10 220
h 0.26384 11 21 cbr 24 ------- 3 11.0 0.10 11 221
h 0.26384 12 21 cbr 1000 ------- 1 12.0 0.11 10 222
h 0.26384 12 21 cbr 24 ------- 1 12.0 0.11 11 223
h 0.26384 13 21 cbr 1000 ------- 2 13.0 0.12 10 224
h 0.26384 13 21 cbr 24 ------- 2 13.0 0.12 11 225
h 0.26384 14 21 cbr 1000 ------- 3 14.0 0.13 10 226
h 0.26384 14 21 cbr 24 ------- 3 14.0 0.13 11 227
h 0.26384 15 21 cbr 1000 ------- 1 15.0 0.14 10 228
h 0.26384 15 21 cbr 24 ------- 1 15.0 0.14 11 229
h 0.26384 16 21 cbr 1000 ------- 2 16.0 0.15 10 230
h 0.26384 16 21 cbr 24 ------- 2 16.0 0.15 11 231
h 0.26384 17 21 cbr 1000 ------- 3 17.0 0.16 10 232
h 0.26384 17 21 cbr 24 ------- 3 17.0 0.16 11 233
h 0.26384 18 21 cbr 1000 ------- 1 18.0 0.17 10 234
h 0.26384 18 21 cbr 24 ------- 1 18.0 0.17 11 235
h 0.26384 19 21 cbr 1000 ------- 2 19.0 0.18 10 236
h 0.26384 19 21 cbr 24 ------- 2 19.0 0.18 11 237
h 0.26384 20 21 cbr 1000 ------- 3 20.0 0.19 10 238
h 0.26384 20 21 cbr 24 ------- 3 20.0 0.19 11 239
- 0.2701 14 21 cbr 24 ------- 3 14.0 0.13 7 147
- 0.271356 14 21 cbr 1000 ------- 3 14.0 0.13 8 186
r 0.271856 21 0 cbr 1000 ------- 3 14.0 0.13 0 26
r 0.273112 21 0 cbr 24 ------- 3 14.0 0.13 1 27
- 0.279564 14 21 cbr 24 ------- 3 14.0 0.13 9 187
- 0.28124 7 21 cbr 1000 ------- 2 7.0 0.6 4 92
r 0.281456 21 0 cbr 1000 ------- 3 14.0 0.13 2 66
r 0.282712 21 0 cbr 24 ------- 3 14.0 0.13 3 67
- 0.289448 7 21 cbr 24 ------- 2 7.0 0.6 5 93
r 0.291056 21 0 cbr 1000 ------- 3 14.0 0.13 4 106
r 0.2918 21 0 cbr 24 ------- 3 14.0 0.13 5 107
+ 0.29384 1 21 cbr 1000 ------- 2 1.0 0.0 10 200
+ 0.29384 1 21 cbr 24 ------- 2 1.0 0.0 11 201
+ 0.29384 2 21 cbr 1000 ------- 3 2.0 0.1 10 202
+ 0.29384 2 21 cbr 24 ------- 3 2.0 0.1 11 203
+ 0.29384 3 21 cbr 1000 ------- 1 3.0 0.2 10 204
+ 0.29384 3 21 cbr 24 ------- 1 3.0 0.2 11 205
+ 0.29384 4 21 cbr 1000 ------- 2 4.0 0.3 10 206
+ 0.29384 4 21 cbr 24 ------- 2 4.0 0.3 11 207
+ 0.29384 5 21 cbr 1000 ------- 3 5.0 0.4 10 208
+ 0.29384 5 21 cbr 24 ------- 3 5.0 0.4 11 209
+ 0.29384 6 21 cbr 1000 ------- 1 6.0 0.5 10 210
+ 0.29384 6 21 cbr 24 ------- 1 6.0 0.5 11 211
+ 0.29384 7 21 cbr 1000 ------- 2 7.0 0.6 10 212
+ 0.29384 7 21 cbr 24 ------- 2 7.0 0.6 11 213
+ 0.29384 8 21 cbr 1000 ------- 3 8.0 0.7 10 214
+ 0.29384 8 21 cbr 24 ------- 3 8.0 0.7 11 215
+ 0.29384 9 21 cbr 1000 ------- 1 9.0 0.8 10 216
+ 0.29384 9 21 cbr 24 ------- 1 9.0 0.8 11 217
+ 0.29384 10 21 cbr 1000 ------- 2 10.0 0.9 10 218
+ 0.29384 10 21 cbr 24 ------- 2 10.0 0.9 11 219
+ 0.29384 11 21 cbr 1000 ------- 3 11.0 0.10 10 220
+ 0.29384 11 21 cbr 24 ------- 3 11.0 0.10 11 221
+ 0.29384 12 21 cbr 1000 ------- 1 12.0 0.11 10 222
+ 0.29384 12 21 cbr 24 ------- 1 12.0 0.11 11 223
+ 0.29384 13 21 cbr 1000 ------- 2 13.0 0.12 10 224
+ 0.29384 13 21 cbr 24 ------- 2 13.0 0.12 11 225
+ 0.29384 14 21 cbr 1000 ------- 3 14.0 0.13 10 226
- 0.29384 14 21 cbr 1000 ------- 3 14.0 0.13 10 226
+ 0.29384 14 21 cbr 24 ------- 3 14.0 0.13 11 227
+ 0.29384 15 21 cbr 1000 ------- 1 15.0 0.14 10 228
+ 0.29384 15 21 cbr 24 ------- 1 15.0 0.14 11 229
+ 0.29384 16 21 cbr 1000 ------- 2 16.0 0.15 10 230
+ 0.29384 16 21 cbr 24 ------- 2 16.0 0.15 11 231
+ 0.29384 17 21 cbr 1000 ------- 3 17.0 0.16 10 232
+ 0.29384 17 21 cbr 24 ------- 3 17.0 0.16 11 233
+ 0.29384 18 21 cbr 1000 ------- 1 18.0 0.17 10 234
+ 0.29384 18 21 cbr 24 ------- 1 18.0 0.17 11 235
+ 0.29384 19 21 cbr 1000 ------- 2 19.0 0.18 10 236
+ 0.29384 19 21 cbr 24 ------- 2 19.0 0.18 11 237
+ 0.29384 20 21 cbr 1000 ------- 3 20.0 0.19 10 238
+ 0.29384 20 21 cbr 24 ------- 3 20.0 0.19 11 239
h 0.296608 1 21 cbr 1000 ------- 2 1.0 0.0 12 240
h 0.296608 1 21 cbr 24 ------- 2 1.0 0.0 13 241
h 0.296608 2 21 cbr 1000 ------- 3 2.0 0.1 12 242
h 0.296608 2 21 cbr 24 ------- 3 2.0 0.1 13 243
h 0.296608 3 21 cbr 1000 ------- 1 3.0 0.2 12 244
h 0.296608 3 21 cbr 24 ------- 1 3.0 0.2 13 245
h 0.296608 4 21 cbr 1000 ------- 2 4.0 0.3 12 246
h 0.296608 4 21 cbr 24 ------- 2 4.0 0.3 13 247
h 0.296608 5 21 cbr 1000 ------- 3 5.0 0.4 12 248
h 0.296608 5 21 cbr 24 ------- 3 5.0 0.4 13 249
h 0.296608 6 21 cbr 1000 ------- 1 6.0 0.5 12 250
h 0.296608 6 21 cbr 24 ------- 1 6.0 0.5 13 251
h 0.296608 7 21 cbr 1000 ------- 2 7.0 0.6 12 252
h 0.296608 7 21 cbr 24 ------- 2 7.0 0.6 13 253
h 0.296608 8 21 cbr 1000 ------- 3 8.0 0.7 12 254
h 0.296608 8 21 cbr 24 ------- 3 8.0 0.7 13 255
h 0.296608 9 21 cbr 1000 ------- 1 9.0 0.8 12 256
h 0.296608 9 21 cbr 24 ------- 1 9.0 0.8 13 257
h 0.296608 10 21 cbr 1000 ------- 2 10.0 0.9 12 258
h 0.296608 10 21 cbr 24 ------- 2 10.0 0.9 13 259
h 0.296608 11 21 cbr 1000 ------- 3 11.0 0.10 12 260
h 0.296608 11 21 cbr 24 ------- 3 11.0 0.10 13 261
h 0.296608 12 21 cbr 1000 ------- 1 12.0 0.11 12 262
h 0.296608 12 21 cbr 24 ------- 1 12.0 0.11 13 263
h 0.296608 13 21 cbr 1000 ------- 2 13.0 0.12 12 264
h 0.296608 13 21 cbr 24 ------- 2 13.0 0.12 13 265
h 0.296608 14 21 cbr 1000 ------- 3 14.0 0.13 12 266
h 0.296608 14 21 cbr 24 ------- 3 14.0 0.13 13 267
h 0.296608 15 21 cbr 1000 ------- 1 15.0 0.14 12 268
h 0.296608 15 21 cbr 24 ------- 1 15.0 0.14 13 269
h 0.296608 16 21 cbr 1000 ------- 2 16.0 0.15 12 270
h 0.296608 16 21 cbr 24 ------- 2 16.0 0.15 13 271
h 0.296608 17 21 cbr 1000 ------- 3 17.0 0.16 12 272
h 0.296608 17 21 cbr 24 ------- 3 17.0 0.16 13 273
h 0.296608 18 21 cbr 1000 ------- 1 18.0 0.17 12 274
h 0.296608 18 21 cbr 24 ------- 1 18.0 0.17 13 275
h 0.296608 19 21 cbr 1000 ------- 2 19.0 0.18 12 276
h 0.296608 19 21 cbr 24 ------- 2 19.0 0.18 13 277
h 0.296608 20 21 cbr 1000 ------- 3 20.0 0.19 12 278
h 0.296608 20 21 cbr 24 ------- 3 20.0 0.19 13 279
- 0.297896 8 21 cbr 24 ------- 3 8.0 0.7 1 15
r 0.300008 21 0 cbr 1000 ------- 3 14.0 0.13 6 146
r 0.301264 21 0 cbr 24 ------- 3 14.0 0.13 7 147
- 0.306236 14 21 cbr 24 ------- 3 14.0 0.13 11 227
- 0.307592 8 21 cbr 1000 ------- 3 8.0 0.7 2 54
r 0.309472 21 0 cbr 1000 ------- 3 14.0 0.13 8 186
r 0.310216 21 0 cbr 24 ------- 3 14.0 0.13 9 187
r 0.311148 21 0 cbr 24 ------- 2 7.0 0.6 3 53
- 0.3158 8 21 cbr 24 ------- 3 8.0 0.7 3 55
- 0.317056 8 21 cbr 1000 ------- 3 8.0 0.7 4 94
r 0.319356 21 0 cbr 1000 ------- 2 7.0 0.6 4 92
- 0.325264 8 21 cbr 24 ------- 3 8.0 0.7 5 95
- 0.326008 8 21 cbr 1000 ------- 3 8.0 0.7 6 134
+ 0.326608 1 21 cbr 1000 ------- 2 1.0 0.0 12 240
+ 0.326608 1 21 cbr 24 ------- 2 1.0 0.0 13 241
+ 0.326608 2 21 cbr 1000 ------- 3 2.0 0.1 12 242
+ 0.326608 2 21 cbr 24 ------- 3 2.0 0.1 13 243
+ 0.326608 3 21 cbr 1000 ------- 1 3.0 0.2 12 244
+ 0.326608 3 21 cbr 24 ------- 1 3.0 0.2 13 245
+ 0.326608 4 21 cbr 1000 ------- 2 4.0 0.3 12 246
+ 0.326608 4 21 cbr 24 ------- 2 4.0 0.3 13 247
+ 0.326608 5 21 cbr 1000 ------- 3 5.0 0.4 12 248
+ 0.326608 5 21 cbr 24 ------- 3 5.0 0.4 13 249
+ 0.326608 6 21 cbr 1000 ------- 1 6.0 0.5 12 250
+ 0.326608 6 21 cbr 24 ------- 1 6.0 0.5 13 251